Second atom

 1 atoms
 1 atom types

 -10 10 xlo xhi
 -10 10 ylo yhi
 -10 10 zlo zhi

Masses

 1 1.0

Atoms

 1 1 1 0.0 1.0 0.0 0.0 0 0 0

