ITEM: TIMESTEP
0
ITEM: NUMBER OF ATOMS
10
ITEM: BOX BOUNDS ff ff ff
0.0000000000000000e+00 3.1305960336348480e+01
0.0000000000000000e+00 3.1305960336348480e+01
0.0000000000000000e+00 3.1305960336348480e+01
ITEM: ATOMS id x y z type mol
4 23.5901 19.5936 2.76448 1 0
7 5.53978 3.15384 5.53221 2 0
3 17.1819 10.0755 5.29699 1 0
2 15.2549 23.8407 5.58904 1 0
10 20.9055 11.3238 9.81426 2 0
9 25.9612 18.5325 13.2672 2 0
5 4.54242 20.5616 22.9134 1 0
1 12.0642 24.7713 23.9698 1 0
8 1.07703 6.87687 29.2008 2 0
6 29.1388 16.5274 29.2946 2 0
ITEM: TIMESTEP
10
ITEM: NUMBER OF ATOMS
10
ITEM: BOX BOUNDS ff ff ff
0.0000000000000000e+00 3.1305960336348480e+01
0.0000000000000000e+00 3.1305960336348480e+01
0.0000000000000000e+00 3.1305960336348480e+01
ITEM: ATOMS id x y z type mol
4 23.4811 19.5756 2.49624 1 0
7 5.35911 3.02185 5.09833 2 0
3 17.4307 10.2082 5.84548 1 0
2 15.4458 23.3795 5.53527 1 0
10 20.7824 11.4099 9.80339 2 0
9 25.9507 18.7251 13.404 2 0
5 4.1626 20.6758 23.399 1 0
1 12.4608 25.1421 23.8869 1 0
8 1.1287 6.64785 29.0227 2 0
6 29.042 16.4671 29.1216 2 0
ITEM: TIMESTEP
20
ITEM: NUMBER OF ATOMS
10
ITEM: BOX BOUNDS ff ff ff
0.0000000000000000e+00 3.1305960336348480e+01
0.0000000000000000e+00 3.1305960336348480e+01
0.0000000000000000e+00 3.1305960336348480e+01
ITEM: ATOMS id x y z type mol
4 23.3729 19.5569 2.22848 1 0
7 5.18005 2.8933 4.66829 2 0
3 17.6799 10.3389 6.39252 1 0
2 15.6346 22.9186 5.48145 1 0
10 20.6612 11.4943 9.79026 2 0
9 25.942 18.9168 13.5396 2 0
5 3.78486 20.7901 23.8845 1 0
1 12.8538 25.5109 23.8026 1 0
8 1.18063 6.42102 28.8443 2 0
6 28.9464 16.4095 28.9504 2 0
ITEM: TIMESTEP
30
ITEM: NUMBER OF ATOMS
10
ITEM: BOX BOUNDS ff ff ff
0.0000000000000000e+00 3.1305960336348480e+01
0.0000000000000000e+00 3.1305960336348480e+01
0.0000000000000000e+00 3.1305960336348480e+01
ITEM: ATOMS id x y z type mol
4 23.2649 19.5363 1.95977 1 0
7 5.00338 2.76656 4.23862 2 0
3 17.9287 10.4688 6.93647 1 0
2 15.8206 22.4609 5.42695 1 0
10 20.5394 11.5802 9.77864 2 0
9 25.9334 19.1061 13.6725 2 0
5 3.41009 20.9048 24.3669 1 0
1 13.2444 25.878 23.7156 1 0
8 1.23129 6.19464 28.6663 2 0
6 28.8519 16.3517 28.7815 2 0
ITEM: TIMESTEP
40
ITEM: NUMBER OF ATOMS
10
ITEM: BOX BOUNDS ff ff ff
0.0000000000000000e+00 3.1305960336348480e+01
0.0000000000000000e+00 3.1305960336348480e+01
0.0000000000000000e+00 3.1305960336348480e+01
ITEM: ATOMS id x y z type mol
4 23.1552 19.5124 1.69062 1 0
7 4.82685 2.64119 3.81035 2 0
3 18.176 10.5974 7.47681 1 0
2 16.0043 22.006 5.37438 1 0
10 20.4157 11.6661 9.76778 2 0
9 25.924 19.294 13.8059 2 0
5 3.03576 21.0206 24.8479 1 0
1 13.6343 26.2433 23.6286 1 0
8 1.28084 5.97003 28.4906 2 0
6 28.7564 16.2936 28.6137 2 0
ITEM: TIMESTEP
50
ITEM: NUMBER OF ATOMS
10
ITEM: BOX BOUNDS ff ff ff
0.0000000000000000e+00 3.1305960336348480e+01
0.0000000000000000e+00 3.1305960336348480e+01
0.0000000000000000e+00 3.1305960336348480e+01
ITEM: ATOMS id x y z type mol
4 23.0461 19.4879 1.42385 1 0
7 4.65108 2.51682 3.38386 2 0
3 18.4221 10.724 8.01463 1 0
2 16.1871 21.5555 5.32333 1 0
10 20.2943 11.7515 9.75726 2 0
9 25.9151 19.4806 13.9383 2 0
5 2.66339 21.1358 25.3272 1 0
1 14.0243 26.6075 23.5412 1 0
8 1.33044 5.74787 28.3162 2 0
6 28.66 16.2361 28.4464 2 0
ITEM: TIMESTEP
60
ITEM: NUMBER OF ATOMS
10
ITEM: BOX BOUNDS ff ff ff
0.0000000000000000e+00 3.1305960336348480e+01
0.0000000000000000e+00 3.1305960336348480e+01
0.0000000000000000e+00 3.1305960336348480e+01
ITEM: ATOMS id x y z type mol
4 22.9365 19.4632 1.15771 1 0
7 4.47663 2.39332 2.959 2 0
3 18.6671 10.8519 8.54986 1 0
2 16.3686 21.1073 5.27101 1 0
10 20.1749 11.8378 9.74678 2 0
9 25.9076 19.6665 14.0691 2 0
5 2.29283 21.2526 25.8034 1 0
1 14.4135 26.9723 23.4547 1 0
8 1.37899 5.52784 28.1414 2 0
6 28.5628 16.1813 28.2801 2 0
ITEM: TIMESTEP
70
ITEM: NUMBER OF ATOMS
10
ITEM: BOX BOUNDS ff ff ff
0.0000000000000000e+00 3.1305960336348480e+01
0.0000000000000000e+00 3.1305960336348480e+01
0.0000000000000000e+00 3.1305960336348480e+01
ITEM: ATOMS id x y z type mol
4 22.8281 19.4391 0.891756 1 0
7 4.30104 2.27061 2.5369 2 0
3 18.9111 10.9795 9.08364 1 0
2 16.5499 20.6613 5.2165 1 0
10 20.0588 11.9243 9.73686 2 0
9 25.9018 19.8522 14.1982 2 0
5 1.92355 21.3691 26.2778 1 0
1 14.8 27.3369 23.3697 1 0
8 1.42837 5.30893 27.9681 2 0
6 28.467 16.1268 28.1138 2 0
ITEM: TIMESTEP
80
ITEM: NUMBER OF ATOMS
10
ITEM: BOX BOUNDS ff ff ff
0.0000000000000000e+00 3.1305960336348480e+01
0.0000000000000000e+00 3.1305960336348480e+01
0.0000000000000000e+00 3.1305960336348480e+01
ITEM: ATOMS id x y z type mol
4 22.7194 19.4158 0.628522 1 0
7 4.12512 2.15017 2.11592 2 0
3 19.1531 11.1052 9.61279 1 0
2 16.7306 20.2183 5.16153 1 0
10 19.9417 12.0125 9.72813 2 0
9 25.896 20.0386 14.3253 2 0
5 1.55563 21.4859 26.7516 1 0
1 15.1852 27.6992 23.2862 1 0
8 1.47636 5.09103 27.7954 2 0
6 28.3717 16.0732 27.9488 2 0
ITEM: TIMESTEP
90
ITEM: NUMBER OF ATOMS
10
ITEM: BOX BOUNDS ff ff ff
0.0000000000000000e+00 3.1305960336348480e+01
0.0000000000000000e+00 3.1305960336348480e+01
0.0000000000000000e+00 3.1305960336348480e+01
ITEM: ATOMS id x y z type mol
4 22.6103 19.3922 0.368311 1 0
7 3.94955 2.03287 1.69621 2 0
3 19.3926 11.229 10.1411 1 0
2 16.9106 19.7776 5.10565 1 0
10 19.8263 12.101 9.72158 2 0
9 25.888 20.2233 14.454 2 0
5 1.19042 21.6054 27.2216 1 0
1 15.5692 28.0598 23.2029 1 0
8 1.52414 4.87271 27.6252 2 0
6 28.2772 16.0191 27.7856 2 0
ITEM: TIMESTEP
100
ITEM: NUMBER OF ATOMS
10
ITEM: BOX BOUNDS ff ff ff
0.0000000000000000e+00 3.1305960336348480e+01
0.0000000000000000e+00 3.1305960336348480e+01
0.0000000000000000e+00 3.1305960336348480e+01
ITEM: ATOMS id x y z type mol
4 22.5015 19.3695 0.110837 1 0
7 3.77473 1.91655 1.27901 2 0
3 19.6312 11.352 10.6696 1 0
2 17.0882 19.3394 5.04976 1 0
10 19.7121 12.1899 9.71575 2 0
9 25.8795 20.4075 14.5805 2 0
5 0.828547 21.7266 27.6899 1 0
1 15.9526 28.4188 23.1214 1 0
8 1.57392 4.65641 27.4561 2 0
6 28.1863 15.965 27.6209 2 0
ITEM: TIMESTEP
110
ITEM: NUMBER OF ATOMS
10
ITEM: BOX BOUNDS ff ff ff
0.0000000000000000e+00 3.1305960336348480e+01
0.0000000000000000e+00 3.1305960336348480e+01
0.0000000000000000e+00 3.1305960336348480e+01
ITEM: ATOMS id x y z type mol
4 22.3937 19.3474 0.145416 1 0
7 3.59956 1.79805 0.86544 2 0
3 19.8674 11.4733 11.1956 1 0
2 17.2651 18.9039 4.9945 1 0
10 19.5974 12.2785 9.7087 2 0
9 25.8722 20.5925 14.7052 2 0
5 0.46966 21.8485 28.155 1 0
1 16.3368 28.7774 23.0413 1 0
8 1.62598 4.44285 27.2871 2 0
6 28.0963 15.9107 27.4566 2 0
ITEM: TIMESTEP
120
ITEM: NUMBER OF ATOMS
10
ITEM: BOX BOUNDS ff ff ff
0.0000000000000000e+00 3.1305960336348480e+01
0.0000000000000000e+00 3.1305960336348480e+01
0.0000000000000000e+00 3.1305960336348480e+01
ITEM: ATOMS id x y z type mol
4 22.2855 19.3234 0.400227 1 0
7 3.42548 1.67983 0.454399 2 0
3 20.1013 11.5911 11.7169 1 0
2 17.4412 18.4706 4.93879 1 0
10 19.4816 12.3686 9.70238 2 0
9 25.8629 20.7765 14.83 2 0
5 0.111579 21.9691 28.6178 1 0
1 16.7198 29.1336 22.9606 1 0
8 1.67746 4.22814 27.1187 2 0
6 28.0054 15.8548 27.2934 2 0
ITEM: TIMESTEP
130
ITEM: NUMBER OF ATOMS
10
ITEM: BOX BOUNDS ff ff ff
0.0000000000000000e+00 3.1305960336348480e+01
0.0000000000000000e+00 3.1305960336348480e+01
0.0000000000000000e+00 3.1305960336348480e+01
ITEM: ATOMS id x y z type mol
4 22.1805 19.2975 0.656136 1 0
7 3.25168 1.56301 0.0444424 2 0
3 20.333 11.7071 12.2353 1 0
2 17.6161 18.0404 4.88284 1 0
10 19.3657 12.4577 9.69587 2 0
9 25.852 20.9594 14.9537 2 0
5 0.245586 22.0894 29.0786 1 0
1 17.1031 29.4895 22.8804 1 0
8 1.72833 4.01386 26.9497 2 0
6 27.9142 15.7994 27.1312 2 0
ITEM: TIMESTEP
140
ITEM: NUMBER OF ATOMS
10
ITEM: BOX BOUNDS ff ff ff
0.0000000000000000e+00 3.1305960336348480e+01
0.0000000000000000e+00 3.1305960336348480e+01
0.0000000000000000e+00 3.1305960336348480e+01
ITEM: ATOMS id x y z type mol
4 22.0744 19.272 0.912097 1 0
7 3.07871 1.44687 0.36501 2 0
3 20.565 11.8206 12.7498 1 0
2 17.7892 17.6116 4.82804 1 0
10 19.2473 12.5445 9.68957 2 0
9 25.8414 21.1436 15.0775 2 0
5 0.60133 22.2106 29.5389 1 0
1 17.4843 29.844 22.7986 1 0
8 1.78212 3.80015 26.7816 2 0
6 27.8228 15.7457 26.9691 2 0
ITEM: TIMESTEP
150
ITEM: NUMBER OF ATOMS
10
ITEM: BOX BOUNDS ff ff ff
0.0000000000000000e+00 3.1305960336348480e+01
0.0000000000000000e+00 3.1305960336348480e+01
0.0000000000000000e+00 3.1305960336348480e+01
ITEM: ATOMS id x y z type mol
4 21.9698 19.244 1.16595 1 0
7 2.90646 1.32905 0.772155 2 0
3 20.7961 11.9333 13.2612 1 0
2 17.961 17.1837 4.77502 1 0
10 19.1285 12.6318 9.68308 2 0
9 25.8309 21.3277 15.202 2 0
5 0.954373 22.3339 29.9984 1 0
1 17.864 30.1967 22.7163 1 0
8 1.83712 3.58584 26.6155 2 0
6 27.7337 15.6942 26.807 2 0
ITEM: TIMESTEP
160
ITEM: NUMBER OF ATOMS
10
ITEM: BOX BOUNDS ff ff ff
0.0000000000000000e+00 3.1305960336348480e+01
0.0000000000000000e+00 3.1305960336348480e+01
0.0000000000000000e+00 3.1305960336348480e+01
ITEM: ATOMS id x y z type mol
4 21.8668 19.2156 1.41959 1 0
7 2.73583 1.21115 1.17645 2 0
3 21.0265 12.0468 13.7705 1 0
2 18.1327 16.758 4.72337 1 0
10 19.0085 12.7206 9.67802 2 0
9 25.8219 21.5111 15.3277 2 0
5 1.30404 22.4574 30.4561 1 0
1 18.2439 30.5482 22.6345 1 0
8 1.88964 3.37121 26.4481 2 0
6 27.6478 15.6442 26.6444 2 0
ITEM: TIMESTEP
170
ITEM: NUMBER OF ATOMS
10
ITEM: BOX BOUNDS ff ff ff
0.0000000000000000e+00 3.1305960336348480e+01
0.0000000000000000e+00 3.1305960336348480e+01
0.0000000000000000e+00 3.1305960336348480e+01
ITEM: ATOMS id x y z type mol
4 21.766 19.1875 1.6733 1 0
7 2.56515 1.09454 1.57829 2 0
3 21.2566 12.1605 14.2776 1 0
2 18.3057 16.3363 4.67199 1 0
10 18.8878 12.8104 9.67438 2 0
9 25.8118 21.696 15.4515 2 0
5 1.65273 22.5805 30.9115 1 0
1 18.6217 30.8982 22.5528 1 0
8 1.9421 3.15926 26.2811 2 0
6 27.5631 15.5954 26.4827 2 0
ITEM: TIMESTEP
180
ITEM: NUMBER OF ATOMS
10
ITEM: BOX BOUNDS ff ff ff
0.0000000000000000e+00 3.1305960336348480e+01
0.0000000000000000e+00 3.1305960336348480e+01
0.0000000000000000e+00 3.1305960336348480e+01
ITEM: ATOMS id x y z type mol
4 21.6643 19.1594 1.92546 1 0
7 2.39337 0.978352 1.97896 2 0
3 21.4846 12.2753 14.7828 1 0
2 18.4789 15.9167 4.62158 1 0
10 18.7684 12.9006 9.67039 2 0
9 25.8008 21.8806 15.5737 2 0
5 2.00074 22.7035 31.2491 1 0
1 18.9976 31.2472 22.4716 1 0
8 1.99417 2.94793 26.1154 2 0
6 27.4801 15.5469 26.3212 2 0
ITEM: TIMESTEP
190
ITEM: NUMBER OF ATOMS
10
ITEM: BOX BOUNDS ff ff ff
0.0000000000000000e+00 3.1305960336348480e+01
0.0000000000000000e+00 3.1305960336348480e+01
0.0000000000000000e+00 3.1305960336348480e+01
ITEM: ATOMS id x y z type mol
4 21.5637 19.1343 2.17509 1 0
7 2.22433 0.861993 2.37921 2 0
3 21.7089 12.3918 15.283 1 0
2 18.6527 15.5005 4.57124 1 0
10 18.6493 12.9916 9.66687 2 0
9 25.7896 22.0645 15.6939 2 0
5 2.34682 22.8261 30.803 1 0
1 19.373 31.0175 22.3897 1 0
8 2.04366 2.73885 25.9516 2 0
6 27.3968 15.4979 26.1606 2 0
ITEM: TIMESTEP
200
ITEM: NUMBER OF ATOMS
10
ITEM: BOX BOUNDS ff ff ff
0.0000000000000000e+00 3.1305960336348480e+01
0.0000000000000000e+00 3.1305960336348480e+01
0.0000000000000000e+00 3.1305960336348480e+01
ITEM: ATOMS id x y z type mol
4 21.4637 19.1099 2.42375 1 0
7 2.05699 0.746299 2.7792 2 0
3 21.9329 12.5093 15.7813 1 0
2 18.8269 15.0884 4.51993 1 0
10 18.5314 13.0829 9.66271 2 0
9 25.7792 22.2476 15.8115 2 0
5 2.69388 22.9491 30.3588 1 0
1 19.7485 30.6704 22.307 1 0
8 2.09264 2.5313 25.7885 2 0
6 27.3132 15.4487 25.9992 2 0
ITEM: TIMESTEP
210
ITEM: NUMBER OF ATOMS
10
ITEM: BOX BOUNDS ff ff ff
0.0000000000000000e+00 3.1305960336348480e+01
0.0000000000000000e+00 3.1305960336348480e+01
0.0000000000000000e+00 3.1305960336348480e+01
ITEM: ATOMS id x y z type mol
4 21.3659 19.0822 2.67135 1 0
7 1.89046 0.629859 3.17597 2 0
3 22.1555 12.6266 16.279 1 0
2 19.0005 14.6789 4.46967 1 0
10 18.4149 13.1741 9.6584 2 0
9 25.7669 22.4292 15.9259 2 0
5 3.04187 23.0731 29.9163 1 0
1 20.1213 30.3254 22.2274 1 0
8 2.142 2.32478 25.6255 2 0
6 27.2293 15.3975 25.8394 2 0
ITEM: TIMESTEP
220
ITEM: NUMBER OF ATOMS
10
ITEM: BOX BOUNDS ff ff ff
0.0000000000000000e+00 3.1305960336348480e+01
0.0000000000000000e+00 3.1305960336348480e+01
0.0000000000000000e+00 3.1305960336348480e+01
ITEM: ATOMS id x y z type mol
4 21.268 19.0518 2.91889 1 0
7 1.72488 0.513052 3.57145 2 0
3 22.3777 12.7426 16.7727 1 0
2 19.1715 14.2724 4.42008 1 0
10 18.2967 13.2648 9.65464 2 0
9 25.7543 22.6086 16.0389 2 0
5 3.38779 23.1966 29.4752 1 0
1 20.4908 29.9832 22.1479 1 0
8 2.19143 2.11814 25.4622 2 0
6 27.1484 15.3459 25.6832 2 0
ITEM: TIMESTEP
230
ITEM: NUMBER OF ATOMS
10
ITEM: BOX BOUNDS ff ff ff
0.0000000000000000e+00 3.1305960336348480e+01
0.0000000000000000e+00 3.1305960336348480e+01
0.0000000000000000e+00 3.1305960336348480e+01
ITEM: ATOMS id x y z type mol
4 21.1734 19.0222 3.16685 1 0
7 1.56114 0.396266 3.96701 2 0
3 22.5991 12.8574 17.2624 1 0
2 19.3418 13.8691 4.36937 1 0
10 18.1778 13.3553 9.64943 2 0
9 25.7424 22.7834 16.1539 2 0
5 3.73319 23.3211 29.0353 1 0
1 20.8577 29.6428 22.0686 1 0
8 2.24234 1.91426 25.2999 2 0
6 27.0666 15.2941 25.529 2 0
ITEM: TIMESTEP
240
ITEM: NUMBER OF ATOMS
10
ITEM: BOX BOUNDS ff ff ff
0.0000000000000000e+00 3.1305960336348480e+01
0.0000000000000000e+00 3.1305960336348480e+01
0.0000000000000000e+00 3.1305960336348480e+01
ITEM: ATOMS id x y z type mol
4 21.0805 18.9936 3.41417 1 0
7 1.3965 0.279794 4.36152 2 0
3 22.8185 12.9714 17.7516 1 0
2 19.5116 13.4683 4.31797 1 0
10 18.0575 13.4453 9.64417 2 0
9 25.7293 22.9553 16.2688 2 0
5 4.07667 23.4453 28.5975 1 0
1 21.2212 29.3047 21.9892 1 0
8 2.29233 1.71237 25.139 2 0
6 26.9864 15.2452 25.3767 2 0
ITEM: TIMESTEP
250
ITEM: NUMBER OF ATOMS
10
ITEM: BOX BOUNDS ff ff ff
0.0000000000000000e+00 3.1305960336348480e+01
0.0000000000000000e+00 3.1305960336348480e+01
0.0000000000000000e+00 3.1305960336348480e+01
ITEM: ATOMS id x y z type mol
4 20.9874 18.9642 3.66071 1 0
7 1.23259 0.165371 4.75314 2 0
3 23.035 13.0864 18.2393 1 0
2 19.6813 13.0705 4.2685 1 0
10 17.9364 13.5342 9.64188 2 0
9 25.7158 23.1272 16.3825 2 0
5 4.41678 23.5668 28.1614 1 0
1 21.5818 28.9688 21.9112 1 0
8 2.34227 1.51001 24.9795 2 0
6 26.9075 15.1972 25.2261 2 0
ITEM: TIMESTEP
260
ITEM: NUMBER OF ATOMS
10
ITEM: BOX BOUNDS ff ff ff
0.0000000000000000e+00 3.1305960336348480e+01
0.0000000000000000e+00 3.1305960336348480e+01
0.0000000000000000e+00 3.1305960336348480e+01
ITEM: ATOMS id x y z type mol
4 20.8936 18.9326 3.90701 1 0
7 1.06793 0.0518637 5.14261 2 0
3 23.2506 13.2018 18.7267 1 0
2 19.8505 12.6747 4.21952 1 0
10 17.8146 13.6205 9.64229 2 0
9 25.7008 23.2987 16.4957 2 0
5 4.75376 23.6862 27.726 1 0
1 21.9407 28.6346 21.8351 1 0
8 2.39437 1.30668 24.8219 2 0
6 26.8288 15.1507 25.0763 2 0
ITEM: TIMESTEP
270
ITEM: NUMBER OF ATOMS
10
ITEM: BOX BOUNDS ff ff ff
0.0000000000000000e+00 3.1305960336348480e+01
0.0000000000000000e+00 3.1305960336348480e+01
0.0000000000000000e+00 3.1305960336348480e+01
ITEM: ATOMS id x y z type mol
4 20.7999 18.8999 4.15235 1 0
7 0.904205 0.0628645 5.53049 2 0
3 23.4632 13.3143 19.2129 1 0
2 20.0189 12.2827 4.17071 1 0
10 17.6929 13.7072 9.64353 2 0
9 25.6867 23.4698 16.6081 2 0
5 5.09082 23.8021 27.2933 1 0
1 22.2964 28.3009 21.7608 1 0
8 2.44582 1.10415 24.6655 2 0
6 26.7505 15.1076 24.9278 2 0
ITEM: TIMESTEP
280
ITEM: NUMBER OF ATOMS
10
ITEM: BOX BOUNDS ff ff ff
0.0000000000000000e+00 3.1305960336348480e+01
0.0000000000000000e+00 3.1305960336348480e+01
0.0000000000000000e+00 3.1305960336348480e+01
ITEM: ATOMS id x y z type mol
4 20.7049 18.867 4.39877 1 0
7 0.740642 0.17638 5.91492 2 0
3 23.6743 13.4243 19.6983 1 0
2 20.1897 11.8945 4.12195 1 0
10 17.5709 13.795 9.6443 2 0
9 25.6718 23.6403 16.7191 2 0
5 5.42625 23.9175 26.8619 1 0
1 22.6496 27.9688 21.6862 1 0
8 2.49643 0.902166 24.5077 2 0
6 26.6735 15.066 24.7797 2 0
ITEM: TIMESTEP
290
ITEM: NUMBER OF ATOMS
10
ITEM: BOX BOUNDS ff ff ff
0.0000000000000000e+00 3.1305960336348480e+01
0.0000000000000000e+00 3.1305960336348480e+01
0.0000000000000000e+00 3.1305960336348480e+01
ITEM: ATOMS id x y z type mol
4 20.6116 18.8334 4.64382 1 0
7 0.576428 0.289429 6.29823 2 0
3 23.8849 13.5349 20.178 1 0
2 20.3599 11.5079 4.07461 1 0
10 17.4489 13.8824 9.64549 2 0
9 25.6546 23.8087 16.8297 2 0
5 5.75883 24.0329 26.4308 1 0
1 23.0021 27.6377 21.6114 1 0
8 2.54716 0.700029 24.3502 2 0
6 26.5962 15.0238 24.6329 2 0
ITEM: TIMESTEP
300
ITEM: NUMBER OF ATOMS
10
ITEM: BOX BOUNDS ff ff ff
0.0000000000000000e+00 3.1305960336348480e+01
0.0000000000000000e+00 3.1305960336348480e+01
0.0000000000000000e+00 3.1305960336348480e+01
ITEM: ATOMS id x y z type mol
4 20.5179 18.8001 4.88591 1 0
7 0.413406 0.402697 6.68066 2 0
3 24.0927 13.6458 20.6553 1 0
2 20.5279 11.1249 4.02916 1 0
10 17.3273 13.9689 9.64813 2 0
9 25.6376 23.9779 16.9413 2 0
5 6.08907 24.1483 26.0008 1 0
1 23.3523 27.3083 21.5369 1 0
8 2.59849 0.500715 24.1935 2 0
6 26.5202 14.981 24.4864 2 0
ITEM: TIMESTEP
310
ITEM: NUMBER OF ATOMS
10
ITEM: BOX BOUNDS ff ff ff
0.0000000000000000e+00 3.1305960336348480e+01
0.0000000000000000e+00 3.1305960336348480e+01
0.0000000000000000e+00 3.1305960336348480e+01
ITEM: ATOMS id x y z type mol
4 20.4248 18.7663 5.12906 1 0
7 0.251827 0.516051 7.06301 2 0
3 24.2979 13.7552 21.128 1 0
2 20.6938 10.7422 3.98537 1 0
10 17.207 14.0568 9.6506 2 0
9 25.6218 24.1492 17.0532 2 0
5 6.4166 24.2634 25.5737 1 0
1 23.7006 26.9804 21.4641 1 0
8 2.65002 0.303271 24.0374 2 0
6 26.4456 14.9379 24.3402 2 0
ITEM: TIMESTEP
320
ITEM: NUMBER OF ATOMS
10
ITEM: BOX BOUNDS ff ff ff
0.0000000000000000e+00 3.1305960336348480e+01
0.0000000000000000e+00 3.1305960336348480e+01
0.0000000000000000e+00 3.1305960336348480e+01
ITEM: ATOMS id x y z type mol
4 20.332 18.7343 5.37146 1 0
7 0.0917928 0.628153 7.4422 2 0
3 24.5004 13.8637 21.5964 1 0
2 20.8567 10.3611 3.94071 1 0
10 17.0884 14.1456 9.65294 2 0
9 25.6066 24.3201 17.1642 2 0
5 6.7445 24.3776 25.149 1 0
1 24.0458 26.6539 21.391 1 0
8 2.70237 0.108951 23.8843 2 0
6 26.3735 14.894 24.195 2 0
ITEM: TIMESTEP
330
ITEM: NUMBER OF ATOMS
10
ITEM: BOX BOUNDS ff ff ff
0.0000000000000000e+00 3.1305960336348480e+01
0.0000000000000000e+00 3.1305960336348480e+01
0.0000000000000000e+00 3.1305960336348480e+01
ITEM: ATOMS id x y z type mol
4 20.2388 18.7044 5.61166 1 0
7 0.0670501 0.73925 7.81957 2 0
3 24.7018 13.9718 22.062 1 0
2 21.0174 9.98146 3.89525 1 0
10 16.9676 14.2322 9.65444 2 0
9 25.5907 24.4907 17.275 2 0
5 7.0729 24.4926 24.7241 1 0
1 24.3893 26.327 21.3169 1 0
8 2.75633 0.0842649 23.734 2 0
6 26.3029 14.8493 24.0499 2 0
ITEM: TIMESTEP
340
ITEM: NUMBER OF ATOMS
10
ITEM: BOX BOUNDS ff ff ff
0.0000000000000000e+00 3.1305960336348480e+01
0.0000000000000000e+00 3.1305960336348480e+01
0.0000000000000000e+00 3.1305960336348480e+01
ITEM: ATOMS id x y z type mol
4 20.1458 18.675 5.85231 1 0
7 0.225622 0.849605 8.19753 2 0
3 24.902 14.0804 22.5257 1 0
2 21.1767 9.60267 3.84915 1 0
10 16.8484 14.3193 9.65686 2 0
9 25.5752 24.6593 17.3842 2 0
5 7.40044 24.6073 24.3 1 0
1 24.7317 26.001 21.2429 1 0
8 2.8113 0.27727 23.5867 2 0
6 26.2328 14.8028 23.9048 2 0
ITEM: TIMESTEP
350
ITEM: NUMBER OF ATOMS
10
ITEM: BOX BOUNDS ff ff ff
0.0000000000000000e+00 3.1305960336348480e+01
0.0000000000000000e+00 3.1305960336348480e+01
0.0000000000000000e+00 3.1305960336348480e+01
ITEM: ATOMS id x y z type mol
4 20.0516 18.6456 6.08864 1 0
7 0.382411 0.956778 8.57245 2 0
3 25.0994 14.1895 22.9893 1 0
2 21.3343 9.22661 3.80391 1 0
10 16.7309 14.4051 9.65978 2 0
9 25.5608 24.8269 17.4941 2 0
5 7.72617 24.7218 23.8763 1 0
1 25.0743 25.6769 21.1699 1 0
8 2.86532 0.468 23.4408 2 0
6 26.1618 14.7579 23.7622 2 0
ITEM: TIMESTEP
360
ITEM: NUMBER OF ATOMS
10
ITEM: BOX BOUNDS ff ff ff
0.0000000000000000e+00 3.1305960336348480e+01
0.0000000000000000e+00 3.1305960336348480e+01
0.0000000000000000e+00 3.1305960336348480e+01
ITEM: ATOMS id x y z type mol
4 19.9578 18.6168 6.32206 1 0
7 0.536421 1.06161 8.94506 2 0
3 25.2974 14.2986 23.4538 1 0
2 21.4907 8.85483 3.76181 1 0
10 16.6113 14.491 9.66356 2 0
9 25.5463 24.9945 17.6063 2 0
5 8.05048 24.8355 23.455 1 0
1 25.4146 25.3558 21.096 1 0
8 2.92033 0.656809 23.2942 2 0
6 26.0907 14.7133 23.6193 2 0
ITEM: TIMESTEP
370
ITEM: NUMBER OF ATOMS
10
ITEM: BOX BOUNDS ff ff ff
0.0000000000000000e+00 3.1305960336348480e+01
0.0000000000000000e+00 3.1305960336348480e+01
0.0000000000000000e+00 3.1305960336348480e+01
ITEM: ATOMS id x y z type mol
4 19.8659 18.5897 6.55399 1 0
7 0.690673 1.16512 9.31681 2 0
3 25.4888 14.4013 23.918 1 0
2 21.6455 8.48551 3.72144 1 0
10 16.4919 14.5777 9.66808 2 0
9 25.5317 25.1606 17.7193 2 0
5 8.37164 24.948 23.0347 1 0
1 25.7526 25.0373 21.0186 1 0
8 2.97527 0.844421 23.1488 2 0
6 26.0258 14.6703 23.4738 2 0
ITEM: TIMESTEP
380
ITEM: NUMBER OF ATOMS
10
ITEM: BOX BOUNDS ff ff ff
0.0000000000000000e+00 3.1305960336348480e+01
0.0000000000000000e+00 3.1305960336348480e+01
0.0000000000000000e+00 3.1305960336348480e+01
ITEM: ATOMS id x y z type mol
4 19.775 18.5636 6.78665 1 0
7 0.84482 1.26997 9.68526 2 0
3 25.6687 14.4974 24.3878 1 0
2 21.7978 8.11923 3.6821 1 0
10 16.3727 14.6649 9.67431 2 0
9 25.5151 25.3247 17.8341 2 0
5 8.69202 25.0612 22.6175 1 0
1 26.0903 24.7218 20.9389 1 0
8 3.02818 1.03093 23.0064 2 0
6 25.971 14.63 23.3214 2 0
ITEM: TIMESTEP
390
ITEM: NUMBER OF ATOMS
10
ITEM: BOX BOUNDS ff ff ff
0.0000000000000000e+00 3.1305960336348480e+01
0.0000000000000000e+00 3.1305960336348480e+01
0.0000000000000000e+00 3.1305960336348480e+01
ITEM: ATOMS id x y z type mol
4 19.6847 18.5366 7.01918 1 0
7 0.999266 1.37423 10.0516 2 0
3 25.8438 14.5934 24.852 1 0
2 21.9489 7.75484 3.6405 1 0
10 16.2538 14.7509 9.67823 2 0
9 25.499 25.4879 17.9504 2 0
5 9.01254 25.1706 22.2017 1 0
1 26.4263 24.4079 20.8584 1 0
8 3.07959 1.21795 22.8667 2 0
6 25.9178 14.5903 23.1697 2 0
ITEM: TIMESTEP
400
ITEM: NUMBER OF ATOMS
10
ITEM: BOX BOUNDS ff ff ff
0.0000000000000000e+00 3.1305960336348480e+01
0.0000000000000000e+00 3.1305960336348480e+01
0.0000000000000000e+00 3.1305960336348480e+01
ITEM: ATOMS id x y z type mol
4 19.5939 18.5092 7.25055 1 0
7 1.15235 1.47883 10.4186 2 0
3 26.0183 14.6884 25.287 1 0
2 22.0988 7.39064 3.59703 1 0
10 16.1348 14.8351 9.67937 2 0
9 25.4819 25.6515 18.0676 2 0
5 9.33216 25.2786 21.7876 1 0
1 26.7602 24.0937 20.7793 1 0
8 3.1289 1.40473 22.7255 2 0
6 25.8635 14.5511 23.0463 2 0
ITEM: TIMESTEP
410
ITEM: NUMBER OF ATOMS
10
ITEM: BOX BOUNDS ff ff ff
0.0000000000000000e+00 3.1305960336348480e+01
0.0000000000000000e+00 3.1305960336348480e+01
0.0000000000000000e+00 3.1305960336348480e+01
ITEM: ATOMS id x y z type mol
4 19.5027 18.485 7.48169 1 0
7 1.30407 1.5854 10.7824 2 0
3 26.187 14.7808 25.6688 1 0
2 22.2466 7.02981 3.55299 1 0
10 16.0168 14.9197 9.68029 2 0
9 25.4656 25.8143 18.1853 2 0
5 9.65138 25.3848 21.3774 1 0
1 27.0919 23.7809 20.7023 1 0
8 3.17657 1.59112 22.584 2 0
6 25.8136 14.5163 22.9782 2 0
ITEM: TIMESTEP
420
ITEM: NUMBER OF ATOMS
10
ITEM: BOX BOUNDS ff ff ff
0.0000000000000000e+00 3.1305960336348480e+01
0.0000000000000000e+00 3.1305960336348480e+01
0.0000000000000000e+00 3.1305960336348480e+01
ITEM: ATOMS id x y z type mol
4 19.4136 18.4629 7.71055 1 0
7 1.45368 1.69324 11.144 2 0
3 26.3463 14.8648 25.9756 1 0
2 22.3916 6.67091 3.50837 1 0
10 15.9019 15.0051 9.68039 2 0
9 25.4525 25.9771 18.3012 2 0
5 9.96769 25.4912 20.9704 1 0
1 27.4194 23.4699 20.6245 1 0
8 3.22323 1.77459 22.4443 2 0
6 25.7775 14.4932 22.9874 2 0
ITEM: TIMESTEP
430
ITEM: NUMBER OF ATOMS
10
ITEM: BOX BOUNDS ff ff ff
0.0000000000000000e+00 3.1305960336348480e+01
0.0000000000000000e+00 3.1305960336348480e+01
0.0000000000000000e+00 3.1305960336348480e+01
ITEM: ATOMS id x y z type mol
4 19.3239 18.4415 7.93829 1 0
7 1.60202 1.79992 11.5051 2 0
3 26.4883 14.9383 26.1944 1 0
2 22.5367 6.31391 3.46536 1 0
10 15.7879 15.0924 9.67909 2 0
9 25.4398 26.1389 18.4171 2 0
5 10.2815 25.5967 20.5664 1 0
1 27.7424 23.1606 20.5469 1 0
8 3.26936 1.95669 22.306 2 0
6 25.7592 14.4825 23.0892 2 0
ITEM: TIMESTEP
440
ITEM: NUMBER OF ATOMS
10
ITEM: BOX BOUNDS ff ff ff
0.0000000000000000e+00 3.1305960336348480e+01
0.0000000000000000e+00 3.1305960336348480e+01
0.0000000000000000e+00 3.1305960336348480e+01
ITEM: ATOMS id x y z type mol
4 19.2329 18.4209 8.16388 1 0
7 1.75098 1.90563 11.8629 2 0
3 26.605 14.9992 26.3202 1 0
2 22.6813 5.95797 3.42536 1 0
10 15.675 15.1803 9.67592 2 0
9 25.4265 26.298 18.5341 2 0
5 10.5939 25.7004 20.1638 1 0
1 28.0642 22.8528 20.4706 1 0
8 3.31444 2.13724 22.1684 2 0
6 25.7636 14.4857 23.2865 2 0
ITEM: TIMESTEP
450
ITEM: NUMBER OF ATOMS
10
ITEM: BOX BOUNDS ff ff ff
0.0000000000000000e+00 3.1305960336348480e+01
0.0000000000000000e+00 3.1305960336348480e+01
0.0000000000000000e+00 3.1305960336348480e+01
ITEM: ATOMS id x y z type mol
4 19.1396 18.3996 8.38649 1 0
7 1.89962 2.01129 12.2171 2 0
3 26.6947 15.0448 26.3559 1 0
2 22.8239 5.60277 3.38476 1 0
10 15.5628 15.2687 9.67135 2 0
9 25.4112 26.4549 18.6499 2 0
5 10.9058 25.8031 19.7627 1 0
1 28.3865 22.546 20.3949 1 0
8 3.35982 2.31681 22.0308 2 0
6 25.7937 14.5035 23.5778 2 0
ITEM: TIMESTEP
460
ITEM: NUMBER OF ATOMS
10
ITEM: BOX BOUNDS ff ff ff
0.0000000000000000e+00 3.1305960336348480e+01
0.0000000000000000e+00 3.1305960336348480e+01
0.0000000000000000e+00 3.1305960336348480e+01
ITEM: ATOMS id x y z type mol
4 19.0449 18.3789 8.60733 1 0
7 2.04933 2.11845 12.5681 2 0
3 26.7583 15.0743 26.3119 1 0
2 22.9662 5.24831 3.3425 1 0
10 15.4496 15.3562 9.66575 2 0
9 25.3971 26.6108 18.7653 2 0
5 11.2163 25.9055 19.362 1 0
1 28.7069 22.242 20.3191 1 0
8 3.40669 2.49638 21.8924 2 0
6 25.8501 14.5383 23.9529 2 0
ITEM: TIMESTEP
470
ITEM: NUMBER OF ATOMS
10
ITEM: BOX BOUNDS ff ff ff
0.0000000000000000e+00 3.1305960336348480e+01
0.0000000000000000e+00 3.1305960336348480e+01
0.0000000000000000e+00 3.1305960336348480e+01
ITEM: ATOMS id x y z type mol
4 18.9506 18.3589 8.82653 1 0
7 2.19951 2.2269 12.9192 2 0
3 26.7984 15.0906 26.2073 1 0
2 23.109 4.89482 3.2988 1 0
10 15.3377 15.4436 9.65825 2 0
9 25.3837 26.7644 18.8802 2 0
5 11.5254 26.0075 18.9613 1 0
1 29.0253 21.9377 20.2443 1 0
8 3.45411 2.67484 21.7542 2 0
6 25.9305 14.5866 24.3896 2 0
ITEM: TIMESTEP
480
ITEM: NUMBER OF ATOMS
10
ITEM: BOX BOUNDS ff ff ff
0.0000000000000000e+00 3.1305960336348480e+01
0.0000000000000000e+00 3.1305960336348480e+01
0.0000000000000000e+00 3.1305960336348480e+01
ITEM: ATOMS id x y z type mol
4 18.8564 18.339 9.04585 1 0
7 2.34953 2.33686 13.2686 2 0
3 26.8209 15.0955 26.065 1 0
2 23.2505 4.54141 3.25482 1 0
10 15.2245 15.5301 9.6493 2 0
9 25.3709 26.915 18.9942 2 0
5 11.8336 26.11 18.56 1 0
1 29.3423 21.6325 20.1685 1 0
8 3.50187 2.85486 21.6178 2 0
6 26.0308 14.6451 24.8622 2 0
ITEM: TIMESTEP
490
ITEM: NUMBER OF ATOMS
10
ITEM: BOX BOUNDS ff ff ff
0.0000000000000000e+00 3.1305960336348480e+01
0.0000000000000000e+00 3.1305960336348480e+01
0.0000000000000000e+00 3.1305960336348480e+01
ITEM: ATOMS id x y z type mol
4 18.7623 18.318 9.26521 1 0
7 2.4998 2.44697 13.6167 2 0
3 26.8348 15.0947 25.909 1 0
2 23.3914 4.19165 3.21102 1 0
10 15.1105 15.6147 9.64039 2 0
9 25.3577 27.0642 19.108 2 0
5 12.1386 26.2111 18.159 1 0
1 29.6592 21.3297 20.0918 1 0
8 3.54568 3.03466 21.4831 2 0
6 26.1398 14.7082 25.3487 2 0
ITEM: TIMESTEP
500
ITEM: NUMBER OF ATOMS
10
ITEM: BOX BOUNDS ff ff ff
0.0000000000000000e+00 3.1305960336348480e+01
0.0000000000000000e+00 3.1305960336348480e+01
0.0000000000000000e+00 3.1305960336348480e+01
ITEM: ATOMS id x y z type mol
4 18.6699 18.2975 9.48456 1 0
7 2.64985 2.55629 13.9645 2 0
3 26.8519 15.096 25.7559 1 0
2 23.5305 3.84335 3.16973 1 0
10 14.9972 15.7002 9.63273 2 0
9 25.3447 27.2128 19.2198 2 0
5 12.4427 26.3118 17.7563 1 0
1 29.9748 21.0279 20.0132 1 0
8 3.5866 3.21204 21.3481 2 0
6 26.243 14.7651 25.8321 2 0
ITEM: TIMESTEP
510
ITEM: NUMBER OF ATOMS
10
ITEM: BOX BOUNDS ff ff ff
0.0000000000000000e+00 3.1305960336348480e+01
0.0000000000000000e+00 3.1305960336348480e+01
0.0000000000000000e+00 3.1305960336348480e+01
ITEM: ATOMS id x y z type mol
4 18.5793 18.2762 9.70382 1 0
7 2.79746 2.66403 14.3121 2 0
3 26.8831 15.1049 25.604 1 0
2 23.6689 3.49536 3.1293 1 0
10 14.8841 15.7844 9.62577 2 0
9 25.3322 27.3602 19.3288 2 0
5 12.7455 26.4112 17.3536 1 0
1 30.2899 20.728 19.9358 1 0
8 3.62886 3.38674 21.2161 2 0
6 26.3309 14.814 26.316 2 0
ITEM: TIMESTEP
520
ITEM: NUMBER OF ATOMS
10
ITEM: BOX BOUNDS ff ff ff
0.0000000000000000e+00 3.1305960336348480e+01
0.0000000000000000e+00 3.1305960336348480e+01
0.0000000000000000e+00 3.1305960336348480e+01
ITEM: ATOMS id x y z type mol
4 18.4911 18.2551 9.92345 1 0
7 2.94185 2.77228 14.6574 2 0
3 26.92 15.1182 25.451 1 0
2 23.8072 3.14797 3.08941 1 0
10 14.7697 15.8667 9.61867 2 0
9 25.3183 27.5105 19.4368 2 0
5 13.0471 26.5092 16.9519 1 0
1 30.6048 20.4294 19.8588 1 0
8 3.67268 3.5605 21.0848 2 0
6 26.4143 14.859 26.8033 2 0
ITEM: TIMESTEP
530
ITEM: NUMBER OF ATOMS
10
ITEM: BOX BOUNDS ff ff ff
0.0000000000000000e+00 3.1305960336348480e+01
0.0000000000000000e+00 3.1305960336348480e+01
0.0000000000000000e+00 3.1305960336348480e+01
ITEM: ATOMS id x y z type mol
4 18.4029 18.2337 10.1418 1 0
7 3.08388 2.88034 14.9998 2 0
3 26.9506 15.1288 25.3167 1 0
2 23.9455 2.80001 3.0486 1 0
10 14.6573 15.9486 9.61045 2 0
9 25.306 27.6607 19.5447 2 0
5 13.3479 26.6076 16.5517 1 0
1 30.9188 20.131 19.783 1 0
8 3.71819 3.73271 20.9563 2 0
6 26.505 14.9072 27.2732 2 0
ITEM: TIMESTEP
540
ITEM: NUMBER OF ATOMS
10
ITEM: BOX BOUNDS ff ff ff
0.0000000000000000e+00 3.1305960336348480e+01
0.0000000000000000e+00 3.1305960336348480e+01
0.0000000000000000e+00 3.1305960336348480e+01
ITEM: ATOMS id x y z type mol
4 18.3181 18.2145 10.3599 1 0
7 3.22735 2.98697 15.3395 2 0
3 26.9712 15.1351 25.222 1 0
2 24.0844 2.45252 3.00869 1 0
10 14.5457 16.0301 9.60235 2 0
9 25.2949 27.8085 19.6519 2 0
5 13.6474 26.7059 16.1544 1 0
1 31.2316 19.833 19.7091 1 0
8 3.76477 3.90321 20.8282 2 0
6 26.6078 14.9588 27.6973 2 0
ITEM: TIMESTEP
550
ITEM: NUMBER OF ATOMS
10
ITEM: BOX BOUNDS ff ff ff
0.0000000000000000e+00 3.1305960336348480e+01
0.0000000000000000e+00 3.1305960336348480e+01
0.0000000000000000e+00 3.1305960336348480e+01
ITEM: ATOMS id x y z type mol
4 18.236 18.196 10.5776 1 0
7 3.37096 3.09398 15.6767 2 0
3 26.9828 15.1358 25.1909 1 0
2 24.2218 2.10822 2.96815 1 0
10 14.4347 16.1119 9.59343 2 0
9 25.2854 27.958 19.7601 2 0
5 13.9446 26.803 15.7573 1 0