LAMMPS (29 Oct 2020)
  using 16 OpenMP thread(s) per MPI task
package omp 0
using multi-threaded neighbor list subroutines
atom_style full
boundary    f f f
lattice     fcc 3.52
Lattice spacing in x,y,z = 1.0435320 1.0435320 1.0435320

#read_data 1.data extra/atom/types 1 extra/bond/types 1 extra/bond/per/atom 1 extra/special/per/atom 1
#read_data 2.data add append offset 1 0 0 0 0

region      box block 0 30 0 30 0 30
create_box  3 box  bond/types 1 extra/bond/per/atom 3
Created orthogonal box = (0.0000000 0.0000000 0.0000000) to (31.305960 31.305960 31.305960)
  1 by 1 by 1 MPI processor grid

create_atoms    1 random 5 5783 box
Created 5 atoms
  create_atoms CPU = 0.001 seconds
create_atoms    2 random 5 7483 box
Created 5 atoms
  create_atoms CPU = 0.000 seconds

mass 1 10.948
mass 2 10.467
mass 3 10.578

fix xwalls all wall/reflect xlo EDGE xhi EDGE
fix ywalls all wall/reflect ylo EDGE yhi EDGE
fix zwalls all wall/reflect zlo EDGE zhi EDGE

pair_style zero 5.0
pair_coeff * *

bond_style harmonic
bond_coeff * 100 1.1

#compute 2 all bond/local engpot
#dump 1 all local 10 dump.foo  c_2[*]


#run 100 post no

#write_data 3.data pair ij
#read_data 3.data add append

# LOOP
#label loop
#variable step loop 1000

fix bonds all bond/create 10 1 2 1.0 1 prob 0.5 85784 iparam 3 3 jparam 3 3

thermo 100

velocity all create 300.0 4928459 rot yes dist gaussian

fix 1 all nve
fix 2 all langevin 1.0 1.0 10.0 904297

dump dump-1 all custom 10 dump.output id x y z type mol

run 10000
Last active /omp style is bond_style harmonic/omp
Neighbor list info ...
  update every 1 steps, delay 10 steps, check yes
  max neighbors/atom: 2000, page size: 100000
  master list distance cutoff = 5.3
  ghost atom cutoff = 5.3
  binsize = 2.65, bins = 12 12 12
  2 neighbor lists, perpetual/occasional/extra = 1 1 0
  (1) pair zero, perpetual
      attributes: half, newton on, omp
      pair build: half/bin/newton/omp
      stencil: half/bin/3d/newton
      bin: standard
  (2) fix bond/create, occasional, copy from (1)
      attributes: half, newton on
      pair build: copy
      stencil: none
      bin: none
Per MPI rank memory allocation (min/avg/max) = 21.11 | 21.11 | 21.11 Mbytes
Step Temp E_pair E_mol TotEng Press 
       0          300            0            0          405        0.088 
     100    273.10349            0            0    368.68972  0.080110359 
     200    250.57694            0            0    338.27887  0.073502568 
     300    226.27935            0            0    305.47713  0.066375277 
     400     197.0332            0    13.230767    279.22559  0.052172331 
     500     189.1173            0     1.623142     256.9315  0.056084664 
     600    166.48467            0    12.945833    237.70013  0.043303103 
     700    134.49295            0     39.40104    220.96652  0.026145729 
     800    143.50654            0     7.446971     201.1808  0.038414568 
     900    128.69334            0    8.9277581    182.66376  0.033551835 
    1000    120.12311            0    3.5725294    165.73872  0.033031265 
    1100    106.07747            0    7.8560691    151.06065  0.027290586 
    1200    92.954363            0    11.970334    137.45872  0.022050641 
    1300    93.632605            0  0.037121159    126.44114  0.027311875 
    1400    81.458662            0    7.3520647    117.32126  0.020247663 
    1500    72.647494            0    7.9509242    106.02504  0.017451099 
    1600    69.677647            0 0.0041941159    94.069018  0.020388917 
    1700    61.036702            0    3.7138452    86.113393  0.015640567 
    1800    53.411053            0    6.9885929    79.093515  0.012150643 
    1900    52.833465            0   0.02821624    71.353393  0.015618646 
    2000     46.49094            0    3.8561368    66.618906  0.011315252 
    2100    41.544115            0    4.1297769    60.214333 0.0097529664 
    2200    40.623973            0   0.12570192    54.968065  0.012157026 
    2300    34.296598            0    4.5834878    50.883895 0.0074462686 
    2400    32.871389            0    1.1471313    45.523507 0.0085835022 
    2500    30.602865            0  0.016732653      41.3306  0.009070974 
    2600    24.067707            0     5.230908    37.722312 0.0041946112 
    2700     25.33105            0   0.13288955    34.329807 0.0076770946 
    2800    22.132675            0    1.6882833    31.567395 0.0051433433 
    2900     21.12239            0    1.4825839     29.99781 0.0049534581 
    3000    20.672095            0  0.051369644    27.958697  0.006223959 
    3100    16.147968            0    3.2219095    25.021667 0.0026799894 
    3200    16.740312            0  0.084112547    22.683534 0.0051114204 
    3300    14.522386            0   0.58131535    20.186537 0.0035573191 
    3400    13.415084            0  0.064366303    18.174729 0.0041128617 
    3500    11.603404            0   0.97070862    16.635304 0.0024480743 
    3600    11.076855            0   0.29263562     15.24639 0.0035944946 
    3700    9.7679392            0    0.9181959    14.104914 0.0019415037 
    3800    9.3758847            0   0.28597875    12.943423 0.0030923125 
    3900    8.2912358            0    1.0053314      12.1985  0.001455818 
    4000    8.6778739            0   0.16126951    11.876399 0.0028139948 
    4100    7.3276957            0   0.61873602    10.511125  0.001420487 
    4200      7.01739            0  0.043762792    9.5172393 0.0022070404 
    4300    5.8917527            0   0.29502255    8.2488887 0.0012536109 
    4400    6.2277956            0   0.01847347    8.4259975 0.0019255354 
    4500    6.4662331            0   0.17396498    8.9033796 0.0015437147 
    4600    6.5343074            0 0.0018378148    8.8231528 0.0018839289 
    4700    6.2699675            0  0.081844173    8.5463004 0.0016051779 
    4800    5.3739775            0   0.03903835     7.293908 0.0014185478 
    4900    5.0954889            0 0.0036355804    6.8825456 0.0015394598 
    5000    5.0053216            0  0.074074312    6.8312584 0.0012464231 
    5100    4.8052183            0   0.02353312    6.5105778 0.0015203645 
    5200    4.1799297            0   0.13119381    5.7740989 0.00092384198 
    5300     3.952683            0   0.02184155    5.3579636 0.0012664101 
    5400    3.5602906            0    0.1608917     4.967284 0.00070622208 
    5500      3.43011            0  0.023580025    4.6542285 0.0011171047 
    5600    3.1514765            0  0.069824424    4.3243177 0.00070954024 
    5700    2.8039314            0   0.04151554    3.8268229 0.00096746764 
    5800    2.4763743            0  0.058848223    3.4019535 0.00053026377 
    5900    2.3065816            0  0.089235236    3.2031204 0.00088298948 
    6000    2.1790189            0  0.055368522     2.997044 0.00044929902 
    6100    2.0184423            0  0.018796827    2.7436939 0.00069161669 
    6200    2.2077287            0  0.020118457    3.0005521 0.00053602334 
    6300    2.3393798            0  0.026029644    3.1841924 0.00080250457 
    6400    2.3886032            0   0.02285909    3.2474734 0.00058141541 
    6500    2.5018522            0 0.00031336393    3.3778138 0.0007471882 
    6600    2.2898931            0 0.0029389673    3.0942946 0.00071203826 
    6700    2.0572924            0 0.0042175857    2.7815623 0.00055347062 
    6800    2.0183353            0 0.0019325652    2.7266852 0.00062485181 
    6900    2.3591165            0 0.0073904086    3.1921977 0.00062542545 
    7000    2.3572615            0 0.00010815797    3.1824111 0.00068357937 
    7100    2.0383715            0 0.00052725856    2.7523288 0.00061516305 
    7200    2.0547744            0  0.018172327    2.7921178 0.00049689666 
    7300    1.7239736            0 8.3408285e-06    2.3273727 0.00050351426 
    7400     1.615506            0 0.0007692328    2.1817023 0.00045275182 
    7500    1.6823167            0 0.00077921201    2.2719067 0.00047221191 
    7600    1.8015564            0 0.00099362587    2.4330948 0.00050441571 
    7700    1.8082505            0 0.0039675877    2.4451058 0.00048194965 
    7800    1.8749755            0 0.00065713789    2.5318741 0.00056922533 
    7900     1.817206            0 0.0013407724    2.4545688 0.0005050801 
    8000    1.7514911            0  0.020741174    2.3852541 0.00040041184 
    8100    1.6933144            0 0.0088637915    2.2948383 0.00042362057 
    8200    1.6873483            0  0.003429808      2.28135 0.00044994578 
    8300    1.3958085            0  0.006010189    1.8903517 0.00034953573 
    8400    1.3386305            0 0.0053555938    1.8125067 0.00033618864 
    8500    1.3668056            0 0.00067635689    1.8458639 0.00042043927 
    8600    1.2959676            0 0.0059618147    1.7555181 0.00032049586 
    8700    1.4027495            0 0.00011331348    1.8938251 0.00040340292 
    8800    1.5702858            0  0.010021489    2.1299073 0.00038277616 
    8900    1.6050822            0 3.3998584e-06    2.1668644 0.00046942974 
    9000    1.3934284            0 0.0033360285    1.8844643  0.000364359 
    9100    1.2601344            0 0.00050114166    1.7016826 0.00035261053 
    9200     1.256379            0  0.020311443    1.7164231 0.00025640588 
    9300    1.1400223            0 0.0032052811    1.5422353 0.00037650117 
    9400    1.2252622            0   0.02266137    1.6767654 0.00024070696 
    9500    1.0693907            0 0.00015870958    1.4438361 0.0003231753 
    9600    1.1395779            0 0.0031976179    1.5416278 0.00029084148 
    9700    1.1512619            0  0.012955715    1.5671592 0.00024885819 
    9800    1.1942315            0 0.0040521937    1.6162647 0.00039754075 
    9900    1.2971904            0 0.0024834523    1.7536905 0.00034230369 
   10000    1.1594674            0 7.6364606e-05    1.5653574 0.00033348895 
Loop time of 1.81366 on 16 procs for 10000 steps with 10 atoms

Performance: 2381929.166 tau/day, 5513.725 timesteps/s
321.2% CPU use with 1 MPI tasks x 16 OpenMP threads

MPI task timing breakdown:
Section |  min time  |  avg time  |  max time  |%varavg| %total
---------------------------------------------------------------
Pair    | 0.0013431  | 0.0013431  | 0.0013431  |   0.0 |  0.07
Bond    | 0.57715    | 0.57715    | 0.57715    |   0.0 | 31.82
Neigh   | 0.027621   | 0.027621   | 0.027621   |   0.0 |  1.52
Comm    | 0.0028288  | 0.0028288  | 0.0028288  |   0.0 |  0.16
Output  | 0.044166   | 0.044166   | 0.044166   |   0.0 |  2.44
Modify  | 1.1336     | 1.1336     | 1.1336     |   0.0 | 62.50
Other   |            | 0.02693    |            |       |  1.48

Nlocal:        10.0000 ave          10 max          10 min
Histogram: 1 0 0 0 0 0 0 0 0 0
Nghost:        0.00000 ave           0 max           0 min
Histogram: 1 0 0 0 0 0 0 0 0 0
Neighs:        0.00000 ave           0 max           0 min
Histogram: 1 0 0 0 0 0 0 0 0 0

Total # of neighbors = 0
Ave neighs/atom = 0.0000000
Ave special neighs/atom = 0.2
Neighbor list builds = 613
Dangerous builds = 310
# END

#next step
#jump SELF loop

Total wall time: 0:00:01
