LAMMPS Description           (1st line of file)

100 atoms
0   bonds
0   angles
0   dihedrals
0   impropers

-0.5 0.5 xlo xhi       
-0.5 0.5 ylo yhi      
-0.5 0.5 zlo zhi       