ITEM: TIMESTEP
0
ITEM: NUMBER OF ATOMS
10
ITEM: BOX BOUNDS ff ff ff
0.0000000000000000e+00 3.1305960336348480e+01
0.0000000000000000e+00 3.1305960336348480e+01
0.0000000000000000e+00 3.1305960336348480e+01
ITEM: ATOMS id x y z type v_hasbond c_1
4 23.5901 19.5936 2.76448 1 0 0
7 5.53978 3.15384 5.53221 2 0 0
3 17.1819 10.0755 5.29699 1 0 0
2 15.2549 23.8407 5.58904 1 0 0
10 20.9055 11.3238 9.81426 2 0 0
9 25.9612 18.5325 13.2672 2 0 0
5 4.54242 20.5616 22.9134 1 0 0
1 12.0642 24.7713 23.9698 1 0 0
8 1.07703 6.87687 29.2008 2 0 0
6 29.1388 16.5274 29.2946 2 0 0
ITEM: TIMESTEP
100
ITEM: NUMBER OF ATOMS
10
ITEM: BOX BOUNDS ff ff ff
0.0000000000000000e+00 3.1305960336348480e+01
0.0000000000000000e+00 3.1305960336348480e+01
0.0000000000000000e+00 3.1305960336348480e+01
ITEM: ATOMS id x y z type v_hasbond c_1
4 22.4945 19.3698 0.108377 1 0 0
7 3.76954 1.9188 1.27366 2 0 0
3 19.6272 11.347 10.6741 1 0 0
2 17.0867 19.3376 5.05238 1 0 0
10 19.7114 12.1961 9.71637 2 0 0
9 25.8752 20.4082 14.5792 2 0 0
5 0.832819 21.7274 27.6897 1 0 0
1 15.9567 28.4206 23.1199 1 0 0
8 1.57649 4.65479 27.4584 2 0 0
6 28.1826 15.9622 27.6265 2 0 0
ITEM: TIMESTEP
200
ITEM: NUMBER OF ATOMS
10
ITEM: BOX BOUNDS ff ff ff
0.0000000000000000e+00 3.1305960336348480e+01
0.0000000000000000e+00 3.1305960336348480e+01
0.0000000000000000e+00 3.1305960336348480e+01
ITEM: ATOMS id x y z type v_hasbond c_1
4 21.4509 19.1107 2.44341 1 0 0
7 2.04704 0.749245 2.79004 2 0 0
3 21.9246 12.5001 15.7892 1 0 0
2 18.8252 15.0851 4.52571 1 0 0
10 18.5292 13.0949 9.66392 2 0 0
9 25.7701 22.2495 15.8091 2 0 0
5 2.67748 22.9501 30.3561 1 0 0
1 19.757 30.6688 22.3036 1 0 0
8 2.09751 2.52755 25.7925 2 0 0
6 27.3057 15.4431 26.0099 2 0 0
ITEM: TIMESTEP
300
ITEM: NUMBER OF ATOMS
10
ITEM: BOX BOUNDS ff ff ff
0.0000000000000000e+00 3.1305960336348480e+01
0.0000000000000000e+00 3.1305960336348480e+01
0.0000000000000000e+00 3.1305960336348480e+01
ITEM: ATOMS id x y z type v_hasbond c_1
4 20.4989 18.8008 4.92264 1 0 0
7 0.398422 0.398385 6.69665 2 0 0
3 24.0801 13.6322 20.6669 1 0 0
2 20.5255 11.1206 4.03807 1 0 0
10 17.3233 13.986 9.65042 2 0 0
9 25.6238 23.9801 16.9384 2 0 0
5 6.05783 24.1487 25.9827 1 0 0
1 23.3632 27.3163 21.5326 1 0 0
8 2.60591 0.494962 24.1994 2 0 0
6 26.5095 14.9731 24.5028 2 0 0
ITEM: TIMESTEP
400
ITEM: NUMBER OF ATOMS
10
ITEM: BOX BOUNDS ff ff ff
0.0000000000000000e+00 3.1305960336348480e+01
0.0000000000000000e+00 3.1305960336348480e+01
0.0000000000000000e+00 3.1305960336348480e+01
ITEM: ATOMS id x y z type v_hasbond c_1
4 19.5687 18.5112 7.30313 1 0 0
7 1.17149 1.47197 10.4392 2 0 0
3 26.0019 14.6708 25.3025 1 1 1
2 22.0946 7.38444 3.60838 1 0 0
10 16.1296 14.8571 9.68189 2 0 0
9 25.4641 25.6543 18.0652 2 0 0
5 9.28782 25.2781 21.755 1 0 0
1 26.7743 24.1107 20.7729 1 0 0
8 3.13822 1.41022 22.734 2 0 0
6 25.8488 14.5397 23.067 2 1 1
ITEM: TIMESTEP
500
ITEM: NUMBER OF ATOMS
10
ITEM: BOX BOUNDS ff ff ff
0.0000000000000000e+00 3.1305960336348480e+01
0.0000000000000000e+00 3.1305960336348480e+01
0.0000000000000000e+00 3.1305960336348480e+01
ITEM: ATOMS id x y z type v_hasbond c_1
4 18.639 18.3006 9.55191 1 0 0
7 2.67369 2.54797 13.9894 2 0 0
3 26.8336 15.0808 25.7816 1 1 1
2 23.525 3.83509 3.18361 1 0 0
10 14.9915 15.7272 9.63459 2 0 0
9 25.3235 27.2154 19.2163 2 0 0
5 12.3851 26.3108 17.7094 1 0 0
1 29.9917 21.0531 20.0053 1 0 0
8 3.59748 3.21689 21.3585 2 0 0
6 26.2235 14.7447 25.851 2 1 1
ITEM: TIMESTEP
600
ITEM: NUMBER OF ATOMS
10
ITEM: BOX BOUNDS ff ff ff
0.0000000000000000e+00 3.1305960336348480e+01
0.0000000000000000e+00 3.1305960336348480e+01
0.0000000000000000e+00 3.1305960336348480e+01
ITEM: ATOMS id x y z type v_hasbond c_1
4 17.7916 18.1026 11.7151 1 0 0
7 4.098 3.60671 17.3788 2 0 0
3 26.981 15.1113 26.3237 1 1 1
2 24.9001 0.394086 2.78352 1 0 0
10 13.8884 16.5607 9.55799 2 0 0
9 25.2405 28.7027 20.289 2 0 0
5 15.3165 27.276 13.75 1 0 0
1 29.5022 18.0828 19.2548 1 0 0
8 4.07415 4.93201 20.1023 2 0 0
6 27.2886 15.2899 28.5381 2 1 1
ITEM: TIMESTEP
700
ITEM: NUMBER OF ATOMS
10
ITEM: BOX BOUNDS ff ff ff
0.0000000000000000e+00 3.1305960336348480e+01
0.0000000000000000e+00 3.1305960336348480e+01
0.0000000000000000e+00 3.1305960336348480e+01
ITEM: ATOMS id x y z type v_hasbond c_1
4 16.9781 17.9592 13.7644 1 0 0
7 5.46608 4.57653 20.6208 2 0 0
3 27.2609 15.22 30.3694 1 1 1
2 26.2042 2.90928 2.41531 1 0 0
10 12.8837 17.3697 9.51029 2 0 0
9 25.2335 30.159 21.3224 2 0 0
5 18.0403 28.1724 9.9609 1 0 0
1 26.5234 15.2244 18.5041 1 0 0
8 4.59564 6.57406 18.9279 2 0 0
6 28.1899 15.7101 27.4694 2 1 1
ITEM: TIMESTEP
800
ITEM: NUMBER OF ATOMS
10
ITEM: BOX BOUNDS ff ff ff
0.0000000000000000e+00 3.1305960336348480e+01
0.0000000000000000e+00 3.1305960336348480e+01
0.0000000000000000e+00 3.1305960336348480e+01
ITEM: ATOMS id x y z type v_hasbond c_1
4 16.2121 17.8411 15.7153 1 0 0
7 6.75035 5.52206 23.7017 2 0 0
3 28.9028 16.0984 29.8593 1 1 1
2 27.4042 6.06925 2.09305 1 0 0
10 11.9479 18.1162 9.45026 2 0 0
9 25.227 31.0104 22.3008 2 0 0
5 20.6052 29.0186 6.2948 1 0 0
1 23.6376 12.4773 17.84 1 0 0
8 5.10625 8.16887 17.7954 2 0 0
6 27.5486 15.3506 31.0642 2 1 1
ITEM: TIMESTEP
900
ITEM: NUMBER OF ATOMS
10
ITEM: BOX BOUNDS ff ff ff
0.0000000000000000e+00 3.1305960336348480e+01
0.0000000000000000e+00 3.1305960336348480e+01
0.0000000000000000e+00 3.1305960336348480e+01
ITEM: ATOMS id x y z type v_hasbond c_1
4 15.507 17.7154 17.5664 1 0 0
7 7.99801 6.47137 26.6269 2 0 0
3 28.9402 16.1333 29.5443 1 1 1
2 28.518 9.03292 1.7439 1 0 0
10 11.0362 18.8416 9.37898 2 0 0
9 25.2531 29.617 23.2443 2 0 0
5 23.0526 29.7987 2.87452 1 0 0
1 20.8181 9.86957 17.2352 1 0 0
8 5.57621 9.66434 16.7004 2 0 0
6 28.5667 15.9429 27.546 2 1 1
ITEM: TIMESTEP
1000
ITEM: NUMBER OF ATOMS
10
ITEM: BOX BOUNDS ff ff ff
0.0000000000000000e+00 3.1305960336348480e+01
0.0000000000000000e+00 3.1305960336348480e+01
0.0000000000000000e+00 3.1305960336348480e+01
ITEM: ATOMS id x y z type v_hasbond c_1
2 29.5966 11.8635 1.50794 1 0 0
5 25.4131 30.5428 0.303835 1 0 0
10 10.2284 19.5665 9.28203 2 0 0
1 18.1701 7.37339 16.6525 1 0 0
8 5.99572 11.108 15.7096 2 0 0
4 14.8019 17.6579 19.2672 1 0 0
9 25.3893 28.3458 24.1313 2 0 0
3 28.5462 15.9965 26.4441 1 1 1
6 30.061 16.7984 26.6999 2 1 1
7 9.19201 7.38652 29.4078 2 0 0
ITEM: TIMESTEP
1100
ITEM: NUMBER OF ATOMS
10
ITEM: BOX BOUNDS ff ff ff
0.0000000000000000e+00 3.1305960336348480e+01
0.0000000000000000e+00 3.1305960336348480e+01
0.0000000000000000e+00 3.1305960336348480e+01
ITEM: ATOMS id x y z type v_hasbond c_1
2 30.6157 14.5792 1.30382 1 0 0
5 27.7038 31.2597 3.34353 1 0 0
10 9.48589 20.3043 9.25142 2 0 0
1 15.6185 5.03923 16.0994 1 0 0
8 6.43881 12.4917 14.7366 2 0 0
4 14.1438 17.621 20.9331 1 0 0
9 25.5242 27.0969 25.0077 2 0 0
3 30.2573 16.9461 23.8293 1 1 1
6 29.4271 16.5088 25.571 2 1 1
7 10.3401 8.28232 30.586 2 0 0
ITEM: TIMESTEP
1200
ITEM: NUMBER OF ATOMS
10
ITEM: BOX BOUNDS ff ff ff
0.0000000000000000e+00 3.1305960336348480e+01
0.0000000000000000e+00 3.1305960336348480e+01
0.0000000000000000e+00 3.1305960336348480e+01
ITEM: ATOMS id x y z type v_hasbond c_1
2 31.0545 17.1925 1.09426 1 0 0
5 29.8348 30.6484 6.18767 1 0 0
10 8.78408 20.9903 9.24125 2 0 0
1 13.1485 2.82581 15.6031 1 0 0
8 6.90159 13.791 13.7724 2 0 0
4 13.5132 17.5897 22.6126 1 0 0
9 25.5572 25.8991 25.8047 2 0 0
3 30.8107 17.3069 23.807 1 1 1
6 29.836 16.8181 21.9497 2 1 1
7 11.4143 9.17807 28.1391 2 0 0
ITEM: TIMESTEP
1300
ITEM: NUMBER OF ATOMS
10
ITEM: BOX BOUNDS ff ff ff
0.0000000000000000e+00 3.1305960336348480e+01
0.0000000000000000e+00 3.1305960336348480e+01
0.0000000000000000e+00 3.1305960336348480e+01
ITEM: ATOMS id x y z type v_hasbond c_1
2 30.1145 19.7535 0.90077 1 0 0
5 30.752 29.9616 8.83675 1 0 0
10 8.18293 21.6008 9.19701 2 0 0
1 10.7957 0.669596 15.1375 1 0 0
8 7.32208 15.0188 12.8262 2 0 0
4 12.8549 17.6366 24.1984 1 0 0
9 25.5715 24.6848 26.5488 2 0 0
3 29.9903 16.9862 21.2423 1 1 1
6 30.8715 17.8171 21.1874 2 1 1
7 12.4417 10.0135 25.8417 2 0 0
ITEM: TIMESTEP
1400
ITEM: NUMBER OF ATOMS
10
ITEM: BOX BOUNDS ff ff ff
0.0000000000000000e+00 3.1305960336348480e+01
0.0000000000000000e+00 3.1305960336348480e+01
0.0000000000000000e+00 3.1305960336348480e+01
ITEM: ATOMS id x y z type v_hasbond c_1
2 29.1747 22.2959 0.761393 1 0 0
5 28.8184 29.3518 11.3641 1 0 0
10 7.6846 22.162 9.10007 2 0 0
1 8.51022 1.37757 14.6834 1 0 0
8 7.68406 16.1937 11.966 2 0 0
4 12.2251 17.7 25.6746 1 0 0
9 25.6039 23.5433 27.2386 2 0 0
3 29.7043 17.5148 18.7143 1 1 1
6 28.9463 17.9198 20.5052 2 1 1
7 13.4172 10.799 23.645 2 0 0
ITEM: TIMESTEP
1500
ITEM: NUMBER OF ATOMS
10
ITEM: BOX BOUNDS ff ff ff
0.0000000000000000e+00 3.1305960336348480e+01
0.0000000000000000e+00 3.1305960336348480e+01
0.0000000000000000e+00 3.1305960336348480e+01
ITEM: ATOMS id x y z type v_hasbond c_1
2 28.2568 24.6949 0.643618 1 0 0
5 27.0174 28.7764 13.8109 1 0 0
10 7.1625 22.7081 9.0133 2 0 0
1 6.30606 3.31812 14.2065 1 0 0
8 7.98923 17.3087 11.2335 2 0 0
4 11.6616 17.7255 27.0566 1 0 0
9 25.6251 22.4912 27.8554 2 0 0
3 28.6065 18.6917 18.6048 1 1 1
6 27.9001 17.2655 17.435 2 1 1
7 14.3415 11.5498 21.629 2 0 0
ITEM: TIMESTEP
1600
ITEM: NUMBER OF ATOMS
10
ITEM: BOX BOUNDS ff ff ff
0.0000000000000000e+00 3.1305960336348480e+01
0.0000000000000000e+00 3.1305960336348480e+01
0.0000000000000000e+00 3.1305960336348480e+01
ITEM: ATOMS id x y z type v_hasbond c_1
2 27.4623 26.937 0.585874 1 0 0
5 25.3383 28.2321 16.1303 1 0 0
10 6.67678 23.2463 8.94609 2 0 0
1 4.19742 5.20083 13.8031 1 0 0
8 8.32879 18.2999 10.5934 2 0 0
4 11.161 17.752 28.3907 1 0 0
9 25.6269 21.4925 28.4315 2 0 0
3 26.8322 18.0656 16.8922 1 1 1
6 27.6316 18.4514 16.1615 2 1 1
7 15.2978 12.1911 19.7471 2 0 0
ITEM: TIMESTEP
1700
ITEM: NUMBER OF ATOMS
10
ITEM: BOX BOUNDS ff ff ff
0.0000000000000000e+00 3.1305960336348480e+01
0.0000000000000000e+00 3.1305960336348480e+01
0.0000000000000000e+00 3.1305960336348480e+01
ITEM: ATOMS id x y z type v_hasbond c_1
2 26.6512 29.0383 0.49967 1 0 0
5 23.8204 27.7126 18.3823 1 0 0
10 6.20452 23.7653 8.82944 2 0 0
1 2.19812 7.0227 13.4678 1 0 0
8 8.672 19.2896 9.95269 2 0 0
4 10.7377 17.7832 29.6598 1 0 0
9 25.6813 20.5197 28.9675 2 0 0
3 25.9819 17.8424 14.6253 1 1 1
6 26.6038 19.1321 15.5759 2 1 1
7 16.2156 12.782 17.8781 2 0 0
ITEM: TIMESTEP
1800
ITEM: NUMBER OF ATOMS
10
ITEM: BOX BOUNDS ff ff ff
0.0000000000000000e+00 3.1305960336348480e+01
0.0000000000000000e+00 3.1305960336348480e+01
0.0000000000000000e+00 3.1305960336348480e+01
ITEM: ATOMS id x y z type v_hasbond c_1
2 25.9281 31.0699 0.423954 1 0 0
5 22.3533 27.2098 20.548 1 0 0
10 5.73321 24.3061 8.67902 2 0 0
1 0.280758 8.77161 13.1592 1 0 0
8 9.01799 20.2477 9.37852 2 0 0
4 10.3475 17.7983 30.843 1 0 0
9 25.7544 19.6668 29.4351 2 0 0
3 26.151 19.2098 13.3534 1 1 1
6 24.7231 18.1484 14.1155 2 1 1
7 17.1427 13.3572 16.0815 2 0 0
ITEM: TIMESTEP
1900
ITEM: NUMBER OF ATOMS
10
ITEM: BOX BOUNDS ff ff ff
0.0000000000000000e+00 3.1305960336348480e+01
0.0000000000000000e+00 3.1305960336348480e+01
0.0000000000000000e+00 3.1305960336348480e+01
ITEM: ATOMS id x y z type v_hasbond c_1
2 25.2657 29.5745 0.363992 1 0 0
5 20.9841 26.7031 22.593 1 0 0
10 5.25078 24.8599 8.62091 2 0 0
1 1.61165 10.3962 12.8526 1 0 0
8 9.3717 21.228 8.87836 2 0 0
4 9.96289 17.8256 30.6604 1 0 0
9 25.8285 18.8675 29.815 2 0 0
3 24.6555 19.1468 12.8967 1 1 1
6 24.6299 18.5781 11.9813 2 1 1
7 18.0475 13.8815 14.3225 2 0 0
ITEM: TIMESTEP
2000
ITEM: NUMBER OF ATOMS
10
ITEM: BOX BOUNDS ff ff ff
0.0000000000000000e+00 3.1305960336348480e+01
0.0000000000000000e+00 3.1305960336348480e+01
0.0000000000000000e+00 3.1305960336348480e+01
ITEM: ATOMS id x y z type v_hasbond c_1
2 24.6006 27.715 0.35097 1 0 0
8 9.72669 22.1707 8.35237 2 0 0
6 24.5212 19.4031 10.7136 2 1 1
10 4.74074 25.3833 8.58387 2 0 0
1 3.41599 11.9584 12.51 1 0 0
7 18.902 14.2358 12.6441 2 0 0
3 23.3343 18.6437 11.6775 1 1 1
5 19.6658 26.2252 24.581 1 0 0
4 9.60561 17.8392 29.567 1 0 0
9 25.8787 18.1317 30.0701 2 0 0
ITEM: TIMESTEP
2100
ITEM: NUMBER OF ATOMS
10
ITEM: BOX BOUNDS ff ff ff
0.0000000000000000e+00 3.1305960336348480e+01
0.0000000000000000e+00 3.1305960336348480e+01
0.0000000000000000e+00 3.1305960336348480e+01
ITEM: ATOMS id x y z type v_hasbond c_1
2 23.949 25.9561 0.267194 1 0 0
8 10.0608 23.1227 7.85884 2 0 0
6 23.1545 19.5495 10.8318 2 1 1
10 4.2906 25.8626 8.61383 2 0 0
1 5.10314 13.4691 12.1762 1 0 0
7 19.7281 14.5735 11.0729 2 0 0
3 23.3321 18.7984 9.25562 1 1 1
5 18.4806 25.7936 26.5731 1 0 0
4 9.24858 17.8959 28.5115 1 0 0
9 25.9682 17.4646 30.2589 2 0 0
ITEM: TIMESTEP
2200
ITEM: NUMBER OF ATOMS
10
ITEM: BOX BOUNDS ff ff ff
0.0000000000000000e+00 3.1305960336348480e+01
0.0000000000000000e+00 3.1305960336348480e+01
0.0000000000000000e+00 3.1305960336348480e+01
ITEM: ATOMS id x y z type v_hasbond c_1
2 23.3369 24.2552 0.141973 1 0 0
8 10.3708 24.077 7.42631 2 0 0
6 22.2287 19.0302 9.11548 2 1 1
10 3.86117 26.2651 8.67594 2 0 0
1 6.69132 14.9406 11.9084 1 0 0
7 20.472 14.9019 9.62154 2 0 0
3 22.9445 19.6026 8.70892 1 1 1
5 17.3184 25.4223 28.5005 1 0 0
4 8.88859 17.9871 27.5398 1 0 0
9 26.0439 16.8207 30.403 2 0 0
ITEM: TIMESTEP
2300
ITEM: NUMBER OF ATOMS
10
ITEM: BOX BOUNDS ff ff ff
0.0000000000000000e+00 3.1305960336348480e+01
0.0000000000000000e+00 3.1305960336348480e+01
0.0000000000000000e+00 3.1305960336348480e+01
ITEM: ATOMS id x y z type v_hasbond c_1
2 22.7731 22.5725 0.0072947 1 0 0
8 10.6803 24.9664 6.99425 2 0 0
6 21.8142 18.8931 7.14766 2 1 1
10 3.42846 26.6393 8.78315 2 0 0
1 8.17868 16.3602 11.7107 1 0 0
7 21.1962 15.2213 8.29361 2 0 0
3 22.107 20.0163 8.46696 1 1 1
5 16.2137 25.0707 30.3882 1 0 0
4 8.58678 18.1136 26.5857 1 0 0
9 26.0735 16.2187 30.5443 2 0 0
ITEM: TIMESTEP
2400
ITEM: NUMBER OF ATOMS
10
ITEM: BOX BOUNDS ff ff ff
0.0000000000000000e+00 3.1305960336348480e+01
0.0000000000000000e+00 3.1305960336348480e+01
0.0000000000000000e+00 3.1305960336348480e+01
ITEM: ATOMS id x y z type v_hasbond c_1
2 22.2578 20.973 0.180616 1 0 0
8 11.0014 25.7802 6.6268 2 0 0
6 21.8716 20.0657 6.49655 2 1 1
10 3.07587 26.9916 8.92922 2 0 0
1 9.54687 17.7459 11.4826 1 0 0
7 21.8385 15.4864 7.09342 2 0 0
3 20.9145 19.0658 7.00637 1 1 1
5 15.1611 24.7605 30.4279 1 0 0
4 8.32604 18.1789 25.6659 1 0 0
9 26.1433 15.6107 30.6907 2 0 0
ITEM: TIMESTEP
2500
ITEM: NUMBER OF ATOMS
10
ITEM: BOX BOUNDS ff ff ff
0.0000000000000000e+00 3.1305960336348480e+01
0.0000000000000000e+00 3.1305960336348480e+01
0.0000000000000000e+00 3.1305960336348480e+01
ITEM: ATOMS id x y z type v_hasbond c_1
2 21.7923 19.5201 0.378026 1 0 0
8 11.2789 26.6184 6.27715 2 0 0
6 21.0133 20.0375 5.99824 2 1 1
10 2.7711 27.3897 9.04959 2 0 0
1 10.845 19.0756 11.2842 1 0 0
7 22.4874 15.8144 5.99044 2 0 0
3 20.6945 19.2301 5.42602 1 1 1
5 14.2454 24.4582 28.6813 1 0 0
4 8.12069 18.2351 24.8168 1 0 0
9 26.2244 15.0542 30.8636 2 0 0
ITEM: TIMESTEP
2600
ITEM: NUMBER OF ATOMS
10
ITEM: BOX BOUNDS ff ff ff
0.0000000000000000e+00 3.1305960336348480e+01
0.0000000000000000e+00 3.1305960336348480e+01
0.0000000000000000e+00 3.1305960336348480e+01
ITEM: ATOMS id x y z type v_hasbond c_1
2 21.3232 18.0787 0.594734 1 0 0
8 11.5885 27.4112 5.93884 2 0 0
6 19.8277 19.3665 5.40015 2 1 1
10 2.47836 27.7498 9.16596 2 0 0
1 12.06 20.3525 11.1029 1 0 0
7 23.1489 16.2155 4.95147 2 0 0
3 20.9014 19.9661 4.05987 1 1 1
5 13.4099 24.1668 27.0149 1 0 0
4 7.93855 18.2626 24.0229 1 0 0
9 26.2406 14.5247 31.034 2 0 0
ITEM: TIMESTEP
2700
ITEM: NUMBER OF ATOMS
10
ITEM: BOX BOUNDS ff ff ff
0.0000000000000000e+00 3.1305960336348480e+01
0.0000000000000000e+00 3.1305960336348480e+01
0.0000000000000000e+00 3.1305960336348480e+01
ITEM: ATOMS id x y z type v_hasbond c_1
2 20.882 16.617 0.76282 1 0 0
8 11.8653 28.2092 5.61765 2 0 0
6 19.7496 19.263 3.51304 2 1 1
10 2.34587 28.0977 9.33648 2 0 0
1 13.1402 21.5511 10.9618 1 0 0
7 23.839 16.6119 3.92671 2 0 0
3 20.0815 20.0616 4.06658 1 1 1
5 12.6589 23.8964 25.4665 1 0 0
4 7.81035 18.2456 23.2676 1 0 0
9 26.2566 14.0287 31.2746 2 0 0
ITEM: TIMESTEP
2800
ITEM: NUMBER OF ATOMS
10
ITEM: BOX BOUNDS ff ff ff
0.0000000000000000e+00 3.1305960336348480e+01
0.0000000000000000e+00 3.1305960336348480e+01
0.0000000000000000e+00 3.1305960336348480e+01
ITEM: ATOMS id x y z type v_hasbond c_1
2 20.4501 15.1786 0.863582 1 0 0
8 12.1075 29.0162 5.27514 2 0 0
6 19.703 19.4947 2.21966 2 1 1
10 2.28493 28.406 9.53488 2 0 0
1 14.1879 22.6585 10.8372 1 0 0
7 24.5324 17.0425 2.95873 2 0 0
3 19.2909 19.8156 3.59161 1 1 1
5 11.9697 23.6757 23.9338 1 0 0
4 7.66039 18.2507 22.5937 1 0 0
9 26.2348 13.596 31.1359 2 0 0
ITEM: TIMESTEP
2900
ITEM: NUMBER OF ATOMS
10
ITEM: BOX BOUNDS ff ff ff
0.0000000000000000e+00 3.1305960336348480e+01
0.0000000000000000e+00 3.1305960336348480e+01
0.0000000000000000e+00 3.1305960336348480e+01
ITEM: ATOMS id x y z type v_hasbond c_1
2 20.0577 13.79 0.918439 1 0 0
8 12.3165 29.8736 4.95941 2 0 0
6 19.4806 20.2875 2.14616 2 1 1
10 2.24508 28.7113 9.74084 2 0 0
1 15.2293 23.6767 10.7301 1 0 0
7 25.2021 17.4644 1.97953 2 0 0
3 18.6756 19.0032 2.06395 1 1 1
5 11.3146 23.471 22.4399 1 0 0
4 7.51142 18.262 21.9258 1 0 0
9 26.2068 13.1789 30.9402 2 0 0
ITEM: TIMESTEP
3000
ITEM: NUMBER OF ATOMS
10
ITEM: BOX BOUNDS ff ff ff
0.0000000000000000e+00 3.1305960336348480e+01
0.0000000000000000e+00 3.1305960336348480e+01
0.0000000000000000e+00 3.1305960336348480e+01
ITEM: ATOMS id x y z type v_hasbond c_1
2 19.7062 12.5094 1.04239 1 0 0
3 18.6352 19.3649 0.911214 1 1 1
7 25.8206 17.9258 1.01825 2 0 0
6 18.6353 19.9252 1.75603 2 1 1
8 12.5997 30.7297 4.68783 2 0 0
1 16.2463 24.7105 10.5859 1 0 0
10 2.23901 28.9446 9.90572 2 0 0
4 7.41648 18.2591 21.2554 1 0 0
5 10.6573 23.211 21.0431 1 0 0
9 26.2592 12.789 30.7178 2 0 0
ITEM: TIMESTEP
3100
ITEM: NUMBER OF ATOMS
10
ITEM: BOX BOUNDS ff ff ff
0.0000000000000000e+00 3.1305960336348480e+01
0.0000000000000000e+00 3.1305960336348480e+01
0.0000000000000000e+00 3.1305960336348480e+01
ITEM: ATOMS id x y z type v_hasbond c_1
2 19.3608 11.3235 1.24107 1 0 0
3 18.7364 20.0891 0.110042 1 1 1
7 26.456 18.3632 0.177285 2 0 0
6 17.7303 19.2199 1.09407 2 1 1
8 12.8956 31.0638 4.38975 2 0 0
1 17.1737 25.7408 10.4618 1 0 0
10 2.23085 29.1758 10.0932 2 0 0
4 7.25962 18.2431 20.5857 1 0 0
5 10.0637 22.8835 19.7053 1 0 0
9 26.3465 12.3623 30.4679 2 0 0
ITEM: TIMESTEP
3200
ITEM: NUMBER OF ATOMS
10
ITEM: BOX BOUNDS ff ff ff
0.0000000000000000e+00 3.1305960336348480e+01
0.0000000000000000e+00 3.1305960336348480e+01
0.0000000000000000e+00 3.1305960336348480e+01
ITEM: ATOMS id x y z type v_hasbond c_1
2 18.9607 10.2309 1.42271 1 0 0
3 18.0347 20.0514 0.217285 1 1 1
7 27.0956 18.7744 0.565751 2 0 0
6 17.7747 19.2238 0.382227 2 1 1
8 13.1561 30.2975 4.07731 2 0 0
1 18.0519 26.7111 10.4119 1 0 0
10 2.26456 29.4226 10.2843 2 0 0
4 7.09861 18.2467 19.9249 1 0 0
5 9.47073 22.4846 18.4741 1 0 0
9 26.444 11.9588 30.1543 2 0 0
ITEM: TIMESTEP
3300
ITEM: NUMBER OF ATOMS
10
ITEM: BOX BOUNDS ff ff ff
0.0000000000000000e+00 3.1305960336348480e+01
0.0000000000000000e+00 3.1305960336348480e+01
0.0000000000000000e+00 3.1305960336348480e+01
ITEM: ATOMS id x y z type v_hasbond c_1
2 18.5351 9.25113 1.5981 1 0 0
3 17.4075 20.096 0.556474 1 1 1
7 27.8073 19.1351 1.22858 2 0 0
6 17.7406 19.1955 1.7611 2 1 1
8 13.4001 29.5312 3.74172 2 0 0
1 18.8539 27.6776 10.3874 1 0 0
10 2.36413 29.6389 10.5087 2 0 0
4 6.98203 18.2755 19.2501 1 0 0
5 8.86306 22.0663 17.2923 1 0 0
9 26.5569 11.5574 29.8015 2 0 0
ITEM: TIMESTEP
3400
ITEM: NUMBER OF ATOMS
10
ITEM: BOX BOUNDS ff ff ff
0.0000000000000000e+00 3.1305960336348480e+01
0.0000000000000000e+00 3.1305960336348480e+01
0.0000000000000000e+00 3.1305960336348480e+01
ITEM: ATOMS id x y z type v_hasbond c_1
2 18.1405 8.34359 1.78417 1 0 0
3 17.0466 19.4132 1.59472 1 1 1
7 28.5173 19.4497 1.84837 2 0 0
6 17.4965 19.8223 2.3177 2 1 1
8 13.6473 28.8383 3.42077 2 0 0
1 19.5904 28.655 10.3568 1 0 0
10 2.49989 29.8413 10.7362 2 0 0
4 6.9367 18.315 18.6306 1 0 0
5 8.26776 21.7081 16.1962 1 0 0
9 26.7042 11.1377 29.4731 2 0 0
ITEM: TIMESTEP
3500
ITEM: NUMBER OF ATOMS
10
ITEM: BOX BOUNDS ff ff ff
0.0000000000000000e+00 3.1305960336348480e+01
0.0000000000000000e+00 3.1305960336348480e+01
0.0000000000000000e+00 3.1305960336348480e+01
ITEM: ATOMS id x y z type v_hasbond c_1
2 17.7086 7.52563 1.99539 1 0 0
3 16.7802 18.9695 2.52054 1 1 1
7 29.2099 19.7391 2.43777 2 0 0
6 17.2395 20.1721 2.95839 2 1 1
8 13.8646 28.2343 3.12667 2 0 0
1 20.3423 29.6487 10.3701 1 0 0
10 2.66151 30.0712 10.9879 2 0 0
4 6.88581 18.3454 18.0884 1 0 0
5 7.68683 21.3568 15.1421 1 0 0
9 26.8513 10.7427 29.1806 2 0 0
ITEM: TIMESTEP
3600
ITEM: NUMBER OF ATOMS
10
ITEM: BOX BOUNDS ff ff ff
0.0000000000000000e+00 3.1305960336348480e+01
0.0000000000000000e+00 3.1305960336348480e+01
0.0000000000000000e+00 3.1305960336348480e+01
ITEM: ATOMS id x y z type v_hasbond c_1
2 17.2353 6.79393 2.20989 1 0 0
3 16.8515 19.0568 3.82612 1 1 1
7 29.9254 20.0717 2.95489 2 0 0
6 16.7157 19.9174 3.11846 2 1 1
8 14.0382 27.6061 2.85039 2 0 0
1 21.069 30.6507 10.4266 1 0 0
10 2.79746 30.3022 11.2045 2 0 0
4 6.80601 18.3009 17.6371 1 0 0
5 7.09293 21.0053 14.128 1 0 0
9 26.9362 10.4008 28.9144 2 0 0
ITEM: TIMESTEP
3700
ITEM: NUMBER OF ATOMS
10
ITEM: BOX BOUNDS ff ff ff
0.0000000000000000e+00 3.1305960336348480e+01
0.0000000000000000e+00 3.1305960336348480e+01
0.0000000000000000e+00 3.1305960336348480e+01
ITEM: ATOMS id x y z type v_hasbond c_1
2 16.7963 6.09993 2.41225 1 0 0
3 16.7407 19.2067 4.69979 1 1 1
7 30.6291 20.442 3.37075 2 0 0
6 16.3218 19.5915 3.65689 2 1 1
8 14.2373 26.978 2.5511 2 0 0
1 21.6643 31.017 10.478 1 0 0
10 2.85218 30.4874 11.403 2 0 0
4 6.68306 18.1659 17.1539 1 0 0
5 6.52262 20.6499 13.1484 1 0 0
9 27.0764 10.1034 28.6073 2 0 0
ITEM: TIMESTEP
3800
ITEM: NUMBER OF ATOMS
10
ITEM: BOX BOUNDS ff ff ff
0.0000000000000000e+00 3.1305960336348480e+01
0.0000000000000000e+00 3.1305960336348480e+01
0.0000000000000000e+00 3.1305960336348480e+01
ITEM: ATOMS id x y z type v_hasbond c_1
2 16.3403 5.45941 2.58668 1 0 0
3 16.5721 19.6896 5.23348 1 1 1
7 31.2529 20.8083 3.8074 2 0 0
6 16.008 18.8823 4.50429 2 1 1
8 14.459 26.4016 2.27953 2 0 0
1 22.1881 30.135 10.5135 1 0 0
10 2.92726 30.5972 11.6116 2 0 0
4 6.50895 18.0512 16.7013 1 0 0
5 5.95979 20.3146 12.2229 1 0 0
9 27.2489 9.74023 28.3472 2 0 0
ITEM: TIMESTEP
3900
ITEM: NUMBER OF ATOMS
10
ITEM: BOX BOUNDS ff ff ff
0.0000000000000000e+00 3.1305960336348480e+01
0.0000000000000000e+00 3.1305960336348480e+01
0.0000000000000000e+00 3.1305960336348480e+01
ITEM: ATOMS id x y z type v_hasbond c_1
2 15.9534 4.84782 2.67536 1 0 0
3 16.273 19.6784 5.59028 1 1 1
7 30.7618 21.2347 4.21936 2 0 0
6 15.9502 18.6834 5.398 2 1 1
8 14.7127 25.8755 2.05509 2 0 0
1 22.6934 29.2907 10.4917 1 0 0
10 2.99918 30.6294 11.8013 2 0 0
4 6.33961 18.0337 16.2783 1 0 0
5 5.40248 19.9902 11.2993 1 0 0
9 27.379 9.37006 28.0715 2 0 0
ITEM: TIMESTEP
4000
ITEM: NUMBER OF ATOMS
10
ITEM: BOX BOUNDS ff ff ff
0.0000000000000000e+00 3.1305960336348480e+01
0.0000000000000000e+00 3.1305960336348480e+01
0.0000000000000000e+00 3.1305960336348480e+01
ITEM: ATOMS id x y z type v_hasbond c_1
2 15.5528 4.215 2.76997 1 0 0
3 15.813 19.5786 5.68701 1 1 1
7 30.1896 21.6679 4.60214 2 0 0
6 16.122 18.564 6.49215 2 1 1
8 14.9521 25.2969 1.84233 2 0 0
1 23.2016 28.5014 10.4714 1 0 0
10 3.06262 30.6109 11.9944 2 0 0
4 6.2153 18.0066 15.8777 1 0 0
5 4.8742 19.7045 10.3869 1 0 0
9 27.5302 9.04571 27.8639 2 0 0
ITEM: TIMESTEP
4100
ITEM: NUMBER OF ATOMS
10
ITEM: BOX BOUNDS ff ff ff
0.0000000000000000e+00 3.1305960336348480e+01
0.0000000000000000e+00 3.1305960336348480e+01
0.0000000000000000e+00 3.1305960336348480e+01
ITEM: ATOMS id x y z type v_hasbond c_1
2 15.2228 3.59971 2.8152 1 0 0
8 15.1601 24.667 1.60081 2 0 0
7 29.6369 22.0462 4.97938 2 0 0
3 15.5787 19.1655 6.29126 1 1 1
6 16.0397 18.8069 7.03019 2 1 1
5 4.39536 19.3775 9.48874 1 0 0
1 23.7394 27.7873 10.484 1 0 0
10 3.16018 30.6172 12.1197 2 0 0
4 6.08246 18.0003 15.4377 1 0 0
9 27.7234 8.77463 27.6567 2 0 0
ITEM: TIMESTEP
4200
ITEM: NUMBER OF ATOMS
10
ITEM: BOX BOUNDS ff ff ff
0.0000000000000000e+00 3.1305960336348480e+01
0.0000000000000000e+00 3.1305960336348480e+01
0.0000000000000000e+00 3.1305960336348480e+01
ITEM: ATOMS id x y z type v_hasbond c_1
2 14.9042 2.96892 2.84166 1 0 0
8 15.3747 24.0525 1.33117 2 0 0
7 29.2083 22.4219 5.32128 2 0 0
3 15.2086 18.6625 6.73213 1 1 1
6 16.0476 19.118 7.71288 2 1 1
5 3.96962 19.0686 8.66841 1 0 0
1 24.2036 27.0783 10.4829 1 0 0
10 3.26915 30.6253 12.2027 2 0 0
4 6.06348 18.0407 14.9841 1 0 0
9 27.8587 8.54235 27.4303 2 0 0
ITEM: TIMESTEP
4300
ITEM: NUMBER OF ATOMS
10
ITEM: BOX BOUNDS ff ff ff
0.0000000000000000e+00 3.1305960336348480e+01
0.0000000000000000e+00 3.1305960336348480e+01
0.0000000000000000e+00 3.1305960336348480e+01
ITEM: ATOMS id x y z type v_hasbond c_1
2 14.6423 2.36394 2.85242 1 0 0
8 15.5559 23.5091 1.06119 2 0 0
7 28.8136 22.7504 5.68731 2 0 0
3 15.1887 18.5049 7.52275 1 1 1
6 15.7121 19.0697 7.97655 2 1 1
5 3.52295 18.7564 7.86905 1 0 0
1 24.6063 26.4258 10.4547 1 0 0
10 3.42549 30.6246 12.2642 2 0 0
4 6.06515 18.0932 14.5176 1 0 0
9 27.9215 8.31708 27.2095 2 0 0
ITEM: TIMESTEP
4400
ITEM: NUMBER OF ATOMS
10
ITEM: BOX BOUNDS ff ff ff
0.0000000000000000e+00 3.1305960336348480e+01
0.0000000000000000e+00 3.1305960336348480e+01
0.0000000000000000e+00 3.1305960336348480e+01
ITEM: ATOMS id x y z type v_hasbond c_1
2 14.439 1.76428 2.88406 1 0 0
8 15.7115 23.0131 0.756452 2 0 0
7 28.4719 23.0935 6.05946 2 0 0
3 15.0567 18.0728 8.2691 1 1 1
6 15.5394 19.3313 8.29172 2 1 1
5 3.15404 18.3968 7.13135 1 0 0
1 24.9533 25.8063 10.4306 1 0 0
10 3.62538 30.6876 12.3664 2 0 0
4 6.01986 18.1951 14.1414 1 0 0
9 28.0706 8.1141 27.0741 2 0 0
ITEM: TIMESTEP
4500
ITEM: NUMBER OF ATOMS
10
ITEM: BOX BOUNDS ff ff ff
0.0000000000000000e+00 3.1305960336348480e+01
0.0000000000000000e+00 3.1305960336348480e+01
0.0000000000000000e+00 3.1305960336348480e+01
ITEM: ATOMS id x y z type v_hasbond c_1
2 14.2759 1.08784 2.93011 1 0 0
8 15.9161 22.5307 0.468552 2 0 0
7 28.2075 23.4521 6.44849 2 0 0
3 15.1048 18.1609 8.96229 1 1 1
6 15.1683 19.0256 8.76982 2 1 1
5 2.76615 18.0452 6.37793 1 0 0
1 25.2953 25.2022 10.439 1 0 0
10 3.86505 30.7421 12.5124 2 0 0
4 6.009 18.26 13.7099 1 0 0
9 28.253 7.92531 26.9693 2 0 0
ITEM: TIMESTEP
4600
ITEM: NUMBER OF ATOMS
10
ITEM: BOX BOUNDS ff ff ff
0.0000000000000000e+00 3.1305960336348480e+01
0.0000000000000000e+00 3.1305960336348480e+01
0.0000000000000000e+00 3.1305960336348480e+01
ITEM: ATOMS id x y z type v_hasbond c_1
2 14.0988 0.433369 2.98769 1 0 0
8 16.1371 22.0168 0.222654 2 0 0
7 27.8652 23.7948 6.84831 2 0 0
3 15.3227 17.9681 9.71388 1 1 1
6 14.6443 19.0292 9.1283 2 1 1
5 2.36785 17.6588 5.65517 1 0 0
1 25.5962 24.6288 10.4253 1 0 0
10 4.01789 30.8826 12.7118 2 0 0
4 6.01193 18.2817 13.2796 1 0 0
9 28.4434 7.82603 26.8074 2 0 0
ITEM: TIMESTEP
4700
ITEM: NUMBER OF ATOMS
10
ITEM: BOX BOUNDS ff ff ff
0.0000000000000000e+00 3.1305960336348480e+01
0.0000000000000000e+00 3.1305960336348480e+01
0.0000000000000000e+00 3.1305960336348480e+01
ITEM: ATOMS id x y z type v_hasbond c_1
2 13.9185 0.261362 3.00685 1 0 0
8 16.3982 21.4597 0.069719 2 0 0
7 27.4577 24.1522 7.30215 2 0 0
3 15.2511 18.1997 10.1682 1 1 1
6 14.5323 18.6112 9.80072 2 1 1
5 2.00039 17.3257 4.97987 1 0 0
1 25.8719 24.1032 10.3757 1 0 0
10 4.1734 31.0865 12.8896 2 0 0
4 5.91004 18.243 12.8789 1 0 0
9 28.602 7.75575 26.5981 2 0 0
ITEM: TIMESTEP
4800
ITEM: NUMBER OF ATOMS
10
ITEM: BOX BOUNDS ff ff ff
0.0000000000000000e+00 3.1305960336348480e+01
0.0000000000000000e+00 3.1305960336348480e+01
0.0000000000000000e+00 3.1305960336348480e+01
ITEM: ATOMS id x y z type v_hasbond c_1
2 13.7251 0.900517 2.97201 1 0 0
8 16.6292 20.9367 0.0511346 2 0 0
7 26.9771 24.482 7.74634 2 0 0
3 15.4917 18.4072 10.6569 1 1 1
6 14.1763 18.1615 10.3706 2 1 1
5 1.56261 17.0873 4.32664 1 0 0
1 26.1844 23.6172 10.3257 1 0 0
10 4.32649 31.2598 13.116 2 0 0
4 5.88154 18.1705 12.446 1 0 0
9 28.746 7.68192 26.393 2 0 0
ITEM: TIMESTEP
4900
ITEM: NUMBER OF ATOMS
10
ITEM: BOX BOUNDS ff ff ff
0.0000000000000000e+00 3.1305960336348480e+01
0.0000000000000000e+00 3.1305960336348480e+01
0.0000000000000000e+00 3.1305960336348480e+01
ITEM: ATOMS id x y z type v_hasbond c_1
2 13.5717 1.50218 2.86603 1 0 0
8 16.8964 20.4084 0.168012 2 0 0
7 26.5731 24.8848 8.15235 2 0 0
3 15.1823 18.3646 11.0871 1 1 1
6 14.4047 17.9699 10.9886 2 1 1
5 1.14341 16.893 3.71147 1 0 0
1 26.4992 23.1557 10.3096 1 0 0
10 4.3527 31.1007 13.4157 2 0 0
4 5.80712 18.0418 11.962 1 0 0
9 28.8362 7.53039 26.2259 2 0 0
ITEM: TIMESTEP
5000
ITEM: NUMBER OF ATOMS
10
ITEM: BOX BOUNDS ff ff ff
0.0000000000000000e+00 3.1305960336348480e+01
0.0000000000000000e+00 3.1305960336348480e+01
0.0000000000000000e+00 3.1305960336348480e+01
ITEM: ATOMS id x y z type v_hasbond c_1
2 13.4092 2.07723 2.75508 1 0 0
8 17.2211 19.9191 0.292296 2 0 0
7 26.1933 25.2547 8.56011 2 0 0
3 15.1249 18.5377 11.4862 1 1 1
6 14.3516 17.4753 11.6029 2 1 1
5 0.741205 16.6895 3.11188 1 0 0
1 26.8055 22.6897 10.3168 1 0 0
10 4.34771 30.7932 13.7622 2 0 0
4 5.78813 17.9217 11.5275 1 0 0
9 28.9298 7.44108 26.0553 2 0 0
ITEM: TIMESTEP
5100
ITEM: NUMBER OF ATOMS
10
ITEM: BOX BOUNDS ff ff ff
0.0000000000000000e+00 3.1305960336348480e+01
0.0000000000000000e+00 3.1305960336348480e+01
0.0000000000000000e+00 3.1305960336348480e+01
ITEM: ATOMS id x y z type v_hasbond c_1
2 13.2236 2.58969 2.63161 1 0 0
8 17.5064 19.4678 0.362806 2 0 0
5 0.387553 16.4689 2.52507 1 0 0
1 27.0945 22.2856 10.3869 1 0 0
7 25.8004 25.6207 8.98473 2 0 0
4 5.76806 17.8202 11.1669 1 0 0
3 14.8908 18.2567 11.9592 1 1 1
6 14.4673 17.442 12.0911 2 1 1
10 4.38437 30.463 14.1692 2 0 0
9 29.0718 7.3983 25.8842 2 0 0
ITEM: TIMESTEP
5200
ITEM: NUMBER OF ATOMS
10
ITEM: BOX BOUNDS ff ff ff
0.0000000000000000e+00 3.1305960336348480e+01
0.0000000000000000e+00 3.1305960336348480e+01
0.0000000000000000e+00 3.1305960336348480e+01
ITEM: ATOMS id x y z type v_hasbond c_1
2 13.0524 3.07623 2.55574 1 0 0
8 17.6811 18.9951 0.366948 2 0 0
5 0.0127858 16.2416 1.90556 1 0 0
1 27.3836 21.9283 10.4476 1 0 0
7 25.4266 25.9121 9.40448 2 0 0
4 5.84241 17.7425 10.7509 1 0 0
3 14.8127 18.3099 12.3538 1 1 1