ITEM: TIMESTEP
0
ITEM: NUMBER OF ATOMS
10
ITEM: BOX BOUNDS ff ff ff
0.0000000000000000e+00 3.1305960336348480e+01
0.0000000000000000e+00 3.1305960336348480e+01
0.0000000000000000e+00 3.1305960336348480e+01
ITEM: ATOMS id x y z type
4 23.5901 19.5936 2.76448 1
7 5.53978 3.15384 5.53221 2
3 17.1819 10.0755 5.29699 1
2 15.2549 23.8407 5.58904 1
10 20.9055 11.3238 9.81426 2
9 25.9612 18.5325 13.2672 2
5 4.54242 20.5616 22.9134 1
1 12.0642 24.7713 23.9698 1
8 1.07703 6.87687 29.2008 2
6 29.1388 16.5274 29.2946 2
ITEM: TIMESTEP
10
ITEM: NUMBER OF ATOMS
11
ITEM: BOX BOUNDS ff ff ff
0.0000000000000000e+00 3.1305960336348480e+01
0.0000000000000000e+00 3.1305960336348480e+01
0.0000000000000000e+00 3.1305960336348480e+01
ITEM: ATOMS id x y z type
4 23.4812 19.5776 2.49595 1
7 5.35667 3.021 5.09806 2
3 17.4299 10.2071 5.84546 1
2 15.4471 23.3796 5.53405 1
10 20.7818 11.4115 9.80463 2
9 25.9497 18.7253 13.4025 2
5 4.16281 20.6743 23.3987 1
1 12.4618 25.1417 23.8868 1
8 1.13027 6.64908 29.024 2
6 29.0416 16.4652 29.1235 2
11 16.409 3.57982 18.1513 3
ITEM: TIMESTEP
20
ITEM: NUMBER OF ATOMS
11
ITEM: BOX BOUNDS ff ff ff
0.0000000000000000e+00 3.1305960336348480e+01
0.0000000000000000e+00 3.1305960336348480e+01
0.0000000000000000e+00 3.1305960336348480e+01
ITEM: ATOMS id x y z type
4 23.3732 19.5632 2.22907 1
7 5.17427 2.88911 4.66501 2
3 17.6779 10.3371 6.39138 1
2 15.6386 22.9213 5.47811 1
10 20.6587 11.4981 9.79398 2
9 25.9391 18.9176 13.5369 2
5 3.78554 20.784 23.8806 1
1 12.8577 25.5097 23.8037 1
8 1.18454 6.42264 28.8493 2
6 28.9446 16.404 28.9555 2
11 16.4094 3.58226 18.1494 3
ITEM: TIMESTEP
30
ITEM: NUMBER OF ATOMS
11
ITEM: BOX BOUNDS ff ff ff
0.0000000000000000e+00 3.1305960336348480e+01
0.0000000000000000e+00 3.1305960336348480e+01
0.0000000000000000e+00 3.1305960336348480e+01
ITEM: ATOMS id x y z type
4 23.2644 19.5501 1.96297 1
7 4.9923 2.75941 4.23277 2
3 17.924 10.4665 6.93343 1
2 15.8277 22.4658 5.42112 1
10 20.5343 11.5857 9.78342 2
9 25.9298 19.1075 13.6707 2
5 3.40922 20.8922 24.3583 1
1 13.2512 25.8755 23.7231 1
8 1.23844 6.19721 28.6747 2
6 28.8476 16.3418 28.787 2
11 16.4098 3.5849 18.1461 3
ITEM: TIMESTEP
40
ITEM: NUMBER OF ATOMS
11
ITEM: BOX BOUNDS ff ff ff
0.0000000000000000e+00 3.1305960336348480e+01
0.0000000000000000e+00 3.1305960336348480e+01
0.0000000000000000e+00 3.1305960336348480e+01
ITEM: ATOMS id x y z type
4 23.1548 19.5375 1.70086 1
7 4.81167 2.63019 3.80551 2
3 18.1676 10.5957 7.4736 1
2 16.0143 22.0137 5.36488 1
10 20.4104 11.6714 9.77235 2
9 25.92 19.2967 13.8044 2
5 3.03639 20.9992 24.8315 1
1 13.6427 26.2397 23.643 1
8 1.29208 5.97087 28.5013 2
6 28.7516 16.2813 28.619 2
11 16.4082 3.58617 18.1422 3
ITEM: TIMESTEP
50
ITEM: NUMBER OF ATOMS
11
ITEM: BOX BOUNDS ff ff ff
0.0000000000000000e+00 3.1305960336348480e+01
0.0000000000000000e+00 3.1305960336348480e+01
0.0000000000000000e+00 3.1305960336348480e+01
ITEM: ATOMS id x y z type
4 23.0474 19.5261 1.4401 1
7 4.63398 2.50117 3.38276 2
3 18.4091 10.7246 8.0124 1
2 16.1997 21.5659 5.30817 1
10 20.2865 11.7569 9.76172 2
9 25.9103 19.4855 13.9361 2
5 2.66403 21.108 25.3037 1
1 14.0321 26.6049 23.5632 1
8 1.34683 5.7447 28.3271 2
6 28.6553 16.2216 28.4497 2
11 16.407 3.58696 18.1376 3
ITEM: TIMESTEP
60
ITEM: NUMBER OF ATOMS
11
ITEM: BOX BOUNDS ff ff ff
0.0000000000000000e+00 3.1305960336348480e+01
0.0000000000000000e+00 3.1305960336348480e+01
0.0000000000000000e+00 3.1305960336348480e+01
ITEM: ATOMS id x y z type
4 22.9408 19.5136 1.18069 1
7 4.45814 2.37228 2.96272 2
3 18.6497 10.8561 8.54777 1
2 16.3859 21.1222 5.24948 1
10 20.1634 11.8417 9.75124 2
9 25.902 19.6753 14.0643 2
5 2.29161 21.2181 25.7734 1
1 14.4197 26.9691 23.4873 1
8 1.40161 5.5207 28.1527 2
6 28.5607 16.1616 28.2803 2
11 16.4059 3.5887 18.1334 3
ITEM: TIMESTEP
70
ITEM: NUMBER OF ATOMS
11
ITEM: BOX BOUNDS ff ff ff
0.0000000000000000e+00 3.1305960336348480e+01
0.0000000000000000e+00 3.1305960336348480e+01
0.0000000000000000e+00 3.1305960336348480e+01
ITEM: ATOMS id x y z type
4 22.8343 19.5008 0.922727 1
7 4.28243 2.24644 2.54252 2
3 18.8907 10.9872 9.08073 1
2 16.5711 20.6832 5.18972 1
10 20.0396 11.9285 9.74172 2
9 25.895 19.8643 14.1906 2
5 1.92083 21.3278 26.2394 1
1 14.8056 27.3335 23.4131 1
8 1.45781 5.29616 27.9812 2
6 28.4649 16.1007 28.1118 2
11 16.4034 3.58971 18.1296 3
ITEM: TIMESTEP
80
ITEM: NUMBER OF ATOMS
11
ITEM: BOX BOUNDS ff ff ff
0.0000000000000000e+00 3.1305960336348480e+01
0.0000000000000000e+00 3.1305960336348480e+01
0.0000000000000000e+00 3.1305960336348480e+01
ITEM: ATOMS id x y z type
4 22.7269 19.4873 0.666038 1
7 4.10687 2.12254 2.1237 2
3 19.1308 11.1166 9.61343 1
2 16.7536 20.248 5.13151 1
10 19.9181 12.0175 9.73504 2
9 25.8864 20.0539 14.3168 2
5 1.55202 21.4359 26.7025 1
1 15.1893 27.6966 23.3389 1
8 1.51382 5.07239 27.8118 2
6 28.3693 16.0382 27.9453 2
11 16.3995 3.5917 18.1262 3
ITEM: TIMESTEP
90
ITEM: NUMBER OF ATOMS
11
ITEM: BOX BOUNDS ff ff ff
0.0000000000000000e+00 3.1305960336348480e+01
0.0000000000000000e+00 3.1305960336348480e+01
0.0000000000000000e+00 3.1305960336348480e+01
ITEM: ATOMS id x y z type
4 22.6206 19.4753 0.410958 1
7 3.93042 1.9995 1.70485 2
3 19.3685 11.2461 10.1441 1
2 16.935 19.816 5.07369 1
10 19.7977 12.1067 9.72863 2
9 25.879 20.2431 14.4432 2
5 1.18577 21.5427 27.1643 1
1 15.5716 28.0598 23.2638 1
8 1.57219 4.85087 27.6457 2
6 28.2758 15.9757 27.78 2
11 16.3978 3.59238 18.1237 3
ITEM: TIMESTEP
100
ITEM: NUMBER OF ATOMS
11
ITEM: BOX BOUNDS ff ff ff
0.0000000000000000e+00 3.1305960336348480e+01
0.0000000000000000e+00 3.1305960336348480e+01
0.0000000000000000e+00 3.1305960336348480e+01
ITEM: ATOMS id x y z type
4 22.5155 19.4658 0.156053 1
7 3.75545 1.87833 1.2889 2
3 19.6042 11.3726 10.673 1
2 17.1161 19.386 5.01531 1
10 19.6787 12.1961 9.72148 2
9 25.8716 20.432 14.5679 2
5 0.820547 21.6464 27.624 1
1 15.9522 28.4221 23.1893 1
8 1.63205 4.63153 27.4818 2
6 28.1832 15.9163 27.6155 2
11 16.3986 3.5917 18.1195 3
ITEM: TIMESTEP
110
ITEM: NUMBER OF ATOMS
11
ITEM: BOX BOUNDS ff ff ff
0.0000000000000000e+00 3.1305960336348480e+01
0.0000000000000000e+00 3.1305960336348480e+01
0.0000000000000000e+00 3.1305960336348480e+01
ITEM: ATOMS id x y z type
4 22.4098 19.4561 0.100989 1
7 3.58212 1.75826 0.876747 2
3 19.8371 11.4979 11.1999 1
2 17.2966 18.9584 4.95519 1
10 19.5602 12.2835 9.71217 2
9 25.8632 20.6176 14.6914 2
5 0.455815 21.7492 28.082 1
1 16.3288 28.7817 23.1164 1
8 1.69006 4.41149 27.3213 2
6 28.0917 15.8581 27.4493 2
11 16.399 3.58732 18.1168 3
ITEM: TIMESTEP
120
ITEM: NUMBER OF ATOMS
11
ITEM: BOX BOUNDS ff ff ff
0.0000000000000000e+00 3.1305960336348480e+01
0.0000000000000000e+00 3.1305960336348480e+01
0.0000000000000000e+00 3.1305960336348480e+01
ITEM: ATOMS id x y z type
4 22.3043 19.4458 0.356491 1
7 3.41072 1.64182 0.466006 2
3 20.0683 11.622 11.7248 1
2 17.4763 18.5333 4.89507 1
10 19.4427 12.3698 9.7017 2
9 25.8549 20.8024 14.8148 2
5 0.0939163 21.8522 28.5384 1
1 16.7047 29.1398 23.0444 1
8 1.74596 4.19222 27.1617 2
6 27.9994 15.8006 27.2827 2
11 16.4002 3.58186 18.1164 3
ITEM: TIMESTEP
130
ITEM: NUMBER OF ATOMS
11
ITEM: BOX BOUNDS ff ff ff
0.0000000000000000e+00 3.1305960336348480e+01
0.0000000000000000e+00 3.1305960336348480e+01
0.0000000000000000e+00 3.1305960336348480e+01
ITEM: ATOMS id x y z type
4 22.1979 19.4337 0.61223 1
7 3.24006 1.52589 0.057238 2
3 20.2984 11.7436 12.2468 1
2 17.6538 18.1105 4.83486 1
10 19.3257 12.4554 9.69022 2
9 25.847 20.9871 14.9374 2
5 0.263875 21.9564 28.994 1
1 17.0802 29.4947 22.9727 1
8 1.79738 3.97362 27.0012 2
6 27.9073 15.7447 27.1168 2
11 16.4034 3.57709 18.1159 3
ITEM: TIMESTEP
140
ITEM: NUMBER OF ATOMS
11
ITEM: BOX BOUNDS ff ff ff
0.0000000000000000e+00 3.1305960336348480e+01
0.0000000000000000e+00 3.1305960336348480e+01
0.0000000000000000e+00 3.1305960336348480e+01
ITEM: ATOMS id x y z type
4 22.095 19.4202 0.867788 1
7 3.0688 1.40984 0.351733 2
3 20.5291 11.8642 12.7667 1
2 17.8303 17.6892 4.77534 1
10 19.2085 12.5403 9.68067 2
9 25.8367 21.1717 15.0581 2
5 0.619639 22.0605 29.4488 1
1 17.4566 29.8487 22.9009 1
8 1.84789 3.75648 26.842 2
6 27.8172 15.69 26.9526 2
11 16.407 3.57218 18.1154 3
ITEM: TIMESTEP
150
ITEM: NUMBER OF ATOMS
11
ITEM: BOX BOUNDS ff ff ff
0.0000000000000000e+00 3.1305960336348480e+01
0.0000000000000000e+00 3.1305960336348480e+01
0.0000000000000000e+00 3.1305960336348480e+01
ITEM: ATOMS id x y z type
4 21.9946 19.4081 1.12318 1
7 2.89865 1.29536 0.759525 2
3 20.7588 11.987 13.2827 1
2 18.007 17.2704 4.71603 1
10 19.0905 12.6231 9.67111 2
9 25.8268 21.3562 15.1788 2
5 0.973259 22.1635 29.9015 1
1 17.8321 30.2031 22.8284 1
8 1.8993 3.54071 26.6851 2
6 27.7288 15.6365 26.7908 2
11 16.4097 3.56937 18.1125 3
ITEM: TIMESTEP
160
ITEM: NUMBER OF ATOMS
11
ITEM: BOX BOUNDS ff ff ff
0.0000000000000000e+00 3.1305960336348480e+01
0.0000000000000000e+00 3.1305960336348480e+01
0.0000000000000000e+00 3.1305960336348480e+01
ITEM: ATOMS id x y z type
4 21.8961 19.3957 1.37715 1
7 2.72965 1.18539 1.16628 2
3 20.9897 12.1109 13.7964 1
2 18.1808 16.8541 4.65641 1
10 18.9734 12.7062 9.66203 2
9 25.8167 21.54 15.2981 2
5 1.32479 22.2653 30.3531 1
1 18.2062 30.5551 22.7557 1
8 1.95007 3.32443 26.5295 2
6 27.6396 15.585 26.628 2
11 16.4113 3.56652 18.1104 3
ITEM: TIMESTEP
170
ITEM: NUMBER OF ATOMS
11
ITEM: BOX BOUNDS ff ff ff
0.0000000000000000e+00 3.1305960336348480e+01
0.0000000000000000e+00 3.1305960336348480e+01
0.0000000000000000e+00 3.1305960336348480e+01
ITEM: ATOMS id x y z type
4 21.797 19.3844 1.62892 1
7 2.56159 1.07717 1.57306 2
3 21.2215 12.2332 14.305 1
2 18.3535 16.4378 4.59543 1
10 18.858 12.791 9.65485 2
9 25.8059 21.7242 15.4175 2
5 1.67455 22.3677 30.8017 1
1 18.5772 30.9046 22.6842 1
8 2.00075 3.11176 26.3737 2
6 27.5508 15.5336 26.4642 2
11 16.411 3.56616 18.1082 3
ITEM: TIMESTEP
180
ITEM: NUMBER OF ATOMS
11
ITEM: BOX BOUNDS ff ff ff
0.0000000000000000e+00 3.1305960336348480e+01
0.0000000000000000e+00 3.1305960336348480e+01
0.0000000000000000e+00 3.1305960336348480e+01
ITEM: ATOMS id x y z type
4 21.6988 19.3741 1.8775 1
7 2.39378 0.97084 1.97775 2
3 21.4552 12.3562 14.8112 1
2 18.5257 16.0213 4.53631 1
10 18.7456 12.8764 9.64882 2
9 25.7961 21.9102 15.5357 2
5 2.02262 22.4705 31.2487 1
1 18.9479 31.251 22.6125 1
8 2.05252 2.90052 26.2172 2
6 27.4615 15.4822 26.2989 2
11 16.4096 3.5658 18.1028 3
ITEM: TIMESTEP
190
ITEM: NUMBER OF ATOMS
11
ITEM: BOX BOUNDS ff ff ff
0.0000000000000000e+00 3.1305960336348480e+01
0.0000000000000000e+00 3.1305960336348480e+01
0.0000000000000000e+00 3.1305960336348480e+01
ITEM: ATOMS id x y z type
4 21.601 19.3654 2.12379 1
7 2.22723 0.863169 2.38015 2
3 21.6888 12.4779 15.3165 1
2 18.6966 15.6058 4.4781 1
10 18.6333 12.962 9.64319 2
9 25.7867 22.0941 15.6536 2
5 2.3688 22.5736 30.9182 1
1 19.3179 31.0156 22.5433 1
8 2.10461 2.69048 26.0595 2
6 27.3719 15.431 26.134 2
11 16.4102 3.5631 18.0954 3
ITEM: TIMESTEP
200
ITEM: NUMBER OF ATOMS
11
ITEM: BOX BOUNDS ff ff ff
0.0000000000000000e+00 3.1305960336348480e+01
0.0000000000000000e+00 3.1305960336348480e+01
0.0000000000000000e+00 3.1305960336348480e+01
ITEM: ATOMS id x y z type
4 21.5021 19.3573 2.36808 1
7 2.06187 0.755082 2.78234 2
3 21.9228 12.5975 15.8192 1
2 18.8664 15.1917 4.42153 1
10 18.5191 13.0459 9.63716 2
9 25.7779 22.2752 15.7711 2
5 2.71343 22.6749 30.474 1
1 19.6866 30.6704 22.4761 1
8 2.15469 2.48177 25.9013 2
6 27.281 15.3825 25.9691 2
11 16.4127 3.56083 18.0887 3
ITEM: TIMESTEP
210
ITEM: NUMBER OF ATOMS
11
ITEM: BOX BOUNDS ff ff ff
0.0000000000000000e+00 3.1305960336348480e+01
0.0000000000000000e+00 3.1305960336348480e+01
0.0000000000000000e+00 3.1305960336348480e+01
ITEM: ATOMS id x y z type
4 21.4048 19.3494 2.6102 1
7 1.89698 0.647596 3.18667 2
3 22.156 12.7164 16.3191 1
2 19.0354 14.7821 4.36744 1
10 18.4036 13.1289 9.63269 2
9 25.7711 22.4532 15.8887 2
5 3.05758 22.7746 30.0309 1
1 20.0551 30.3251 22.4076 1
8 2.20307 2.27585 25.7426 2
6 27.1901 15.3349 25.8063 2
11 16.4159 3.56058 18.08 3
ITEM: TIMESTEP
220
ITEM: NUMBER OF ATOMS
11
ITEM: BOX BOUNDS ff ff ff
0.0000000000000000e+00 3.1305960336348480e+01
0.0000000000000000e+00 3.1305960336348480e+01
0.0000000000000000e+00 3.1305960336348480e+01
ITEM: ATOMS id x y z type
4 21.3074 19.3427 2.8522 1
7 1.73234 0.541575 3.58996 2
3 22.3881 12.8347 16.8165 1
2 19.2048 14.3758 4.31449 1
10 18.2873 13.2097 9.62999 2
9 25.7632 22.6313 16.0069 2
5 3.40025 22.8727 29.5902 1
1 20.4206 29.9806 22.3405 1
8 2.24963 2.07336 25.585 2
6 27.0988 15.2851 25.6436 2
11 16.419 3.56219 18.0695 3
ITEM: TIMESTEP
230
ITEM: NUMBER OF ATOMS
11
ITEM: BOX BOUNDS ff ff ff
0.0000000000000000e+00 3.1305960336348480e+01
0.0000000000000000e+00 3.1305960336348480e+01
0.0000000000000000e+00 3.1305960336348480e+01
ITEM: ATOMS id x y z type
4 21.2093 19.3367 3.09389 1
7 1.56555 0.435976 3.99112 2
3 22.6188 12.9538 17.3132 1
2 19.3754 13.9702 4.26164 1
10 18.1715 13.2883 9.62853 2
9 25.7563 22.8093 16.1257 2
5 3.73976 22.9733 29.153 1
1 20.7842 29.6374 22.2748 1
8 2.29561 1.87142 25.4309 2
6 27.005 15.2326 25.4824 2
11 16.423 3.56392 18.0568 3
ITEM: TIMESTEP
240
ITEM: NUMBER OF ATOMS
11
ITEM: BOX BOUNDS ff ff ff
0.0000000000000000e+00 3.1305960336348480e+01
0.0000000000000000e+00 3.1305960336348480e+01
0.0000000000000000e+00 3.1305960336348480e+01
ITEM: ATOMS id x y z type
4 21.1107 19.3319 3.33333 1
7 1.39789 0.330628 4.3921 2
3 22.8466 13.0727 17.8086 1
2 19.5454 13.5653 4.20942 1
10 18.0558 13.3654 9.62852 2
9 25.7509 22.9871 16.2458 2
5 4.07625 23.0738 28.7193 1
1 21.1478 29.2955 22.2096 1
8 2.34189 1.6694 25.279 2
6 26.9114 15.1781 25.3217 2
11 16.4247 3.56422 18.0424 3
ITEM: TIMESTEP
250
ITEM: NUMBER OF ATOMS
11
ITEM: BOX BOUNDS ff ff ff
0.0000000000000000e+00 3.1305960336348480e+01
0.0000000000000000e+00 3.1305960336348480e+01
0.0000000000000000e+00 3.1305960336348480e+01
ITEM: ATOMS id x y z type
4 21.011 19.328 3.57241 1
7 1.23218 0.225655 4.7923 2
3 23.0739 13.1938 18.3015 1
2 19.7167 13.1612 4.15765 1
10 17.9396 13.4404 9.62816 2
9 25.7458 23.1655 16.366 2
5 4.40966 23.173 28.2885 1
1 21.5094 28.9572 22.144 1
8 2.38912 1.46817 25.1287 2
6 26.8182 15.1216 25.1628 2
11 16.4254 3.56277 18.0253 3
ITEM: TIMESTEP
260
ITEM: NUMBER OF ATOMS
11
ITEM: BOX BOUNDS ff ff ff
0.0000000000000000e+00 3.1305960336348480e+01
0.0000000000000000e+00 3.1305960336348480e+01
0.0000000000000000e+00 3.1305960336348480e+01
ITEM: ATOMS id x y z type
4 20.9092 19.3222 3.81128 1
7 1.06664 0.118583 5.18961 2
3 23.2976 13.3144 18.7919 1
2 19.8875 12.7575 4.10512 1
10 17.8251 13.5154 9.6265 2
9 25.7412 23.3427 16.4834 2
5 4.74129 23.2726 27.8612 1
1 21.8687 28.6231 22.0785 1
8 2.43536 1.26873 24.9799 2
6 26.7264 15.065 25.0045 2
11 16.4269 3.56123 18.008 3
ITEM: TIMESTEP
270
ITEM: NUMBER OF ATOMS
11
ITEM: BOX BOUNDS ff ff ff
0.0000000000000000e+00 3.1305960336348480e+01
0.0000000000000000e+00 3.1305960336348480e+01
0.0000000000000000e+00 3.1305960336348480e+01
ITEM: ATOMS id x y z type
4 20.8067 19.3144 4.04874 1
7 0.898358 0.0132627 5.58352 2
3 23.5202 13.435 19.28 1
2 20.0548 12.3543 4.05152 1
10 17.7123 13.5897 9.62322 2
9 25.7372 23.5193 16.5995 2
5 5.07251 23.3746 27.437 1
1 22.2276 28.291 22.014 1
8 2.47977 1.07221 24.8327 2
6 26.6353 15.0076 24.8466 2
11 16.4288 3.56045 17.9918 3
ITEM: TIMESTEP
280
ITEM: NUMBER OF ATOMS
11
ITEM: BOX BOUNDS ff ff ff
0.0000000000000000e+00 3.1305960336348480e+01
0.0000000000000000e+00 3.1305960336348480e+01
0.0000000000000000e+00 3.1305960336348480e+01
ITEM: ATOMS id x y z type
4 20.7046 19.3059 4.28569 1
7 0.729973 0.0893883 5.97626 2
3 23.7427 13.5585 19.766 1
2 20.2197 11.9529 4.00009 1
10 17.5993 13.6651 9.62026 2
9 25.7327 23.6957 16.7159 2
5 5.40262 23.4765 27.0141 1
1 22.5867 27.959 21.9515 1
8 2.52437 0.876151 24.6874 2
6 26.5428 14.9513 24.6909 2
11 16.4316 3.56114 17.9758 3
ITEM: TIMESTEP
290
ITEM: NUMBER OF ATOMS
11
ITEM: BOX BOUNDS ff ff ff
0.0000000000000000e+00 3.1305960336348480e+01
0.0000000000000000e+00 3.1305960336348480e+01
0.0000000000000000e+00 3.1305960336348480e+01
ITEM: ATOMS id x y z type
4 20.6023 19.2988 4.52203 1
7 0.564288 0.192091 6.36677 2
3 23.9641 13.6817 20.2477 1
2 20.3833 11.5546 3.95011 1
10 17.4863 13.7403 9.61673 2
9 25.7279 23.8698 16.8307 2
5 5.73226 23.5785 26.5919 1
1 22.9445 27.6283 21.8905 1
8 2.56811 0.680741 24.5436 2
6 26.4504 14.8973 24.5349 2
11 16.4364 3.56068 17.9593 3
ITEM: TIMESTEP
300
ITEM: NUMBER OF ATOMS
11
ITEM: BOX BOUNDS ff ff ff
0.0000000000000000e+00 3.1305960336348480e+01
0.0000000000000000e+00 3.1305960336348480e+01
0.0000000000000000e+00 3.1305960336348480e+01
ITEM: ATOMS id x y z type
4 20.5013 19.2913 4.75746 1
7 0.40022 0.293423 6.75651 2
3 24.1852 13.8031 20.7259 1
2 20.5446 11.158 3.89993 1
10 17.3711 13.8157 9.61177 2
9 25.7228 24.0425 16.9421 2
5 6.06012 23.6801 26.1715 1
1 23.3 27.3001 21.8307 1
8 2.61187 0.485877 24.4022 2
6 26.3583 14.8438 24.3793 2
11 16.444 3.56059 17.9406 3
ITEM: TIMESTEP
310
ITEM: NUMBER OF ATOMS
11
ITEM: BOX BOUNDS ff ff ff
0.0000000000000000e+00 3.1305960336348480e+01
0.0000000000000000e+00 3.1305960336348480e+01
0.0000000000000000e+00 3.1305960336348480e+01
ITEM: ATOMS id x y z type
4 20.4018 19.2861 4.99302 1
7 0.237739 0.393989 7.1472 2
3 24.4065 13.9247 21.2036 1
2 20.704 10.7613 3.84991 1
10 17.2567 13.8903 9.60708 2
9 25.7184 24.2157 17.0518 2
5 6.38653 23.7803 25.7531 1
1 23.6544 26.9752 21.7713 1
8 2.65452 0.290078 24.2612 2
6 26.2669 14.7886 24.2238 2
11 16.452 3.55856 17.9206 3
ITEM: TIMESTEP
320
ITEM: NUMBER OF ATOMS
11
ITEM: BOX BOUNDS ff ff ff
0.0000000000000000e+00 3.1305960336348480e+01
0.0000000000000000e+00 3.1305960336348480e+01
0.0000000000000000e+00 3.1305960336348480e+01
ITEM: ATOMS id x y z type
4 20.3032 19.2819 5.22895 1
7 0.0739681 0.495727 7.53684 2
3 24.6254 14.0467 21.6784 1
2 20.8624 10.3665 3.80108 1
10 17.1408 13.9636 9.60393 2
9 25.7145 24.3876 17.1601 2
5 6.71087 23.8793 25.3366 1
1 24.007 26.6501 21.7105 1
8 2.69873 0.0973851 24.1228 2
6 26.1764 14.7346 24.0691 2
11 16.4595 3.55454 17.901 3
ITEM: TIMESTEP
330
ITEM: NUMBER OF ATOMS
11
ITEM: BOX BOUNDS ff ff ff
0.0000000000000000e+00 3.1305960336348480e+01
0.0000000000000000e+00 3.1305960336348480e+01
0.0000000000000000e+00 3.1305960336348480e+01
ITEM: ATOMS id x y z type
4 20.2057 19.2771 5.46262 1
7 0.0887544 0.598474 7.92652 2
3 24.8426 14.1679 22.1505 1
2 21.0184 9.97474 3.75545 1
10 17.0231 14.0356 9.6014 2
9 25.7098 24.5592 17.2658 2
5 7.0345 23.9795 24.9232 1
1 24.3574 26.3261 21.6488 1
8 2.74374 0.0926409 23.9848 2
6 26.0876 14.6789 23.9156 2
11 16.4663 3.54907 17.8818 3
ITEM: TIMESTEP
340
ITEM: NUMBER OF ATOMS
11
ITEM: BOX BOUNDS ff ff ff
0.0000000000000000e+00 3.1305960336348480e+01
0.0000000000000000e+00 3.1305960336348480e+01
0.0000000000000000e+00 3.1305960336348480e+01
ITEM: ATOMS id x y z type
4 20.1076 19.2718 5.69286 1
7 0.249634 0.700576 8.31713 2
3 25.057 14.2892 22.6223 1
2 21.171 9.58438 3.71064 1
10 16.9064 14.1078 9.60133 2
9 25.7056 24.73 17.3709 2
5 7.35687 24.0807 24.5124 1
1 24.7067 26.0047 21.5854 1
8 2.79092 0.282038 23.8466 2
6 25.9989 14.623 23.7636 2
11 16.4735 3.5427 17.8607 3
ITEM: TIMESTEP
350
ITEM: NUMBER OF ATOMS
11
ITEM: BOX BOUNDS ff ff ff
0.0000000000000000e+00 3.1305960336348480e+01
0.0000000000000000e+00 3.1305960336348480e+01
0.0000000000000000e+00 3.1305960336348480e+01
ITEM: ATOMS id x y z type
4 20.0103 19.2667 5.92151 1
7 0.410103 0.801297 8.70629 2
3 25.2711 14.41 23.0938 1
2 21.3217 9.19436 3.66709 1
10 16.7897 14.1786 9.60037 2
9 25.7015 24.8986 17.4737 2
5 7.67702 24.1819 24.1051 1
1 25.0525 25.685 21.5214 1
8 2.83925 0.471809 23.7109 2
6 25.911 14.566 23.6116 2
11 16.4782 3.53809 17.8386 3
ITEM: TIMESTEP
360
ITEM: NUMBER OF ATOMS
11
ITEM: BOX BOUNDS ff ff ff
0.0000000000000000e+00 3.1305960336348480e+01
0.0000000000000000e+00 3.1305960336348480e+01
0.0000000000000000e+00 3.1305960336348480e+01
ITEM: ATOMS id x y z type
4 19.9123 19.2623 6.14749 1
7 0.571398 0.901531 9.09404 2
3 25.4752 14.5283 23.5605 1
2 21.4721 8.80539 3.62103 1
10 16.6735 14.2484 9.59918 2
9 25.6966 25.0649 17.574 2
5 7.99497 24.2827 23.7011 1
1 25.395 25.3684 21.4564 1
8 2.88679 0.66009 23.5744 2
6 25.8319 14.5091 23.465 2
11 16.4825 3.53459 17.8158 3
ITEM: TIMESTEP
370
ITEM: NUMBER OF ATOMS
11
ITEM: BOX BOUNDS ff ff ff
0.0000000000000000e+00 3.1305960336348480e+01
0.0000000000000000e+00 3.1305960336348480e+01
0.0000000000000000e+00 3.1305960336348480e+01
ITEM: ATOMS id x y z type
4 19.814 19.2601 6.37157 1
7 0.73109 1.00126 9.48049 2
3 25.6533 14.6489 24.0327 1
2 21.6209 8.41873 3.57501 1
10 16.5587 14.3173 9.59856 2
9 25.6905 25.229 17.6749 2
5 8.31189 24.3829 23.2992 1
1 25.7364 25.0521 21.3918 1
8 2.93282 0.850131 23.4401 2
6 25.7771 14.4516 23.312 2
11 16.4853 3.53137 17.793 3
ITEM: TIMESTEP
380
ITEM: NUMBER OF ATOMS
11
ITEM: BOX BOUNDS ff ff ff
0.0000000000000000e+00 3.1305960336348480e+01
0.0000000000000000e+00 3.1305960336348480e+01
0.0000000000000000e+00 3.1305960336348480e+01
ITEM: ATOMS id x y z type
4 19.7186 19.26 6.5949 1
7 0.888393 1.10227 9.86442 2
3 25.8252 14.7724 24.5143 1
2 21.7701 8.0353 3.52854 1
10 16.4456 14.3868 9.5975 2
9 25.6838 25.3918 17.7739 2
5 8.62654 24.4846 22.8984 1
1 26.0775 24.7375 21.3269 1
8 2.98107 1.03908 23.3089 2
6 25.7265 14.3905 23.146 2
11 16.4882 3.52972 17.7711 3
ITEM: TIMESTEP
390
ITEM: NUMBER OF ATOMS
11
ITEM: BOX BOUNDS ff ff ff
0.0000000000000000e+00 3.1305960336348480e+01
0.0000000000000000e+00 3.1305960336348480e+01
0.0000000000000000e+00 3.1305960336348480e+01
ITEM: ATOMS id x y z type
4 19.6255 19.2602 6.8162 1
7 1.04273 1.20485 10.2462 2
3 25.9941 14.8912 24.9818 1
2 21.9182 7.65711 3.48186 1
10 16.3318 14.4542 9.59779 2
9 25.6761 25.5533 17.8718 2
5 8.94092 24.5863 22.5006 1
1 26.4148 24.4256 21.2609 1
8 3.03132 1.22775 23.18 2
6 25.6755 14.3339 22.9957 2
11 16.4922 3.52784 17.7509 3
ITEM: TIMESTEP
400
ITEM: NUMBER OF ATOMS
11
ITEM: BOX BOUNDS ff ff ff
0.0000000000000000e+00 3.1305960336348480e+01
0.0000000000000000e+00 3.1305960336348480e+01
0.0000000000000000e+00 3.1305960336348480e+01
ITEM: ATOMS id x y z type
4 19.532 19.2594 7.03761 1
7 1.19643 1.30851 10.624 2
3 26.1547 14.997 25.4055 1
2 22.0659 7.27999 3.43547 1
10 16.2175 14.5227 9.60005 2
9 25.6677 25.712 17.9697 2
5 9.25438 24.6864 22.1051 1
1 26.7512 24.1169 21.1936 1
8 3.08125 1.4148 23.0528 2
6 25.6302 14.2894 22.8883 2
11 16.4949 3.5247 17.7318 3
ITEM: TIMESTEP
410
ITEM: NUMBER OF ATOMS
11
ITEM: BOX BOUNDS ff ff ff
0.0000000000000000e+00 3.1305960336348480e+01
0.0000000000000000e+00 3.1305960336348480e+01
0.0000000000000000e+00 3.1305960336348480e+01
ITEM: ATOMS id x y z type
4 19.4382 19.2573 7.25739 1
7 1.34923 1.41102 10.9995 2
3 26.3011 15.0831 25.7595 1
2 22.2125 6.90486 3.3862 1
10 16.1024 14.5914 9.60238 2
9 25.6582 25.8706 18.067 2
5 9.5637 24.7865 21.7128 1
1 27.087 23.8092 21.1242 1
8 3.1302 1.60213 22.9263 2
6 25.6 14.2635 22.8508 2
11 16.4989 3.51967 17.7121 3
ITEM: TIMESTEP
420
ITEM: NUMBER OF ATOMS
11
ITEM: BOX BOUNDS ff ff ff
0.0000000000000000e+00 3.1305960336348480e+01
0.0000000000000000e+00 3.1305960336348480e+01
0.0000000000000000e+00 3.1305960336348480e+01
ITEM: ATOMS id x y z type
4 19.3443 19.2539 7.47371 1
7 1.50077 1.51518 11.3723 2
3 26.4264 15.1468 26.0253 1
2 22.3568 6.52982 3.33727 1
10 15.9879 14.66 9.60399 2
9 25.6503 26.0287 18.1632 2
5 9.87144 24.8869 21.3232 1
1 27.4207 23.5027 21.0539 1
8 3.17952 1.78961 22.8011 2
6 25.5924 14.2646 22.9021 2
11 16.5054 3.51394 17.6927 3
ITEM: TIMESTEP
430
ITEM: NUMBER OF ATOMS
11
ITEM: BOX BOUNDS ff ff ff
0.0000000000000000e+00 3.1305960336348480e+01
0.0000000000000000e+00 3.1305960336348480e+01
0.0000000000000000e+00 3.1305960336348480e+01
ITEM: ATOMS id x y z type
4 19.2501 19.249 7.68746 1
7 1.65243 1.6189 11.7401 2
3 26.5266 15.1829 26.1908 1
2 22.5024 6.15521 3.28989 1
10 15.8743 14.7303 9.60762 2
9 25.6421 26.1881 18.2579 2
5 10.1782 24.9848 20.9356 1
1 27.7529 23.197 20.9853 1
8 3.22865 1.97527 22.6765 2
6 25.6119 14.2928 23.0517 2
11 16.5116 3.50917 17.6733 3
ITEM: TIMESTEP
440
ITEM: NUMBER OF ATOMS
11
ITEM: BOX BOUNDS ff ff ff
0.0000000000000000e+00 3.1305960336348480e+01
0.0000000000000000e+00 3.1305960336348480e+01
0.0000000000000000e+00 3.1305960336348480e+01
ITEM: ATOMS id x y z type
4 19.1572 19.2428 7.89924 1
7 1.80226 1.72211 12.105 2
3 26.6002 15.1935 26.2584 1
2 22.648 5.78413 3.24179 1
10 15.7594 14.801 9.61243 2
9 25.6339 26.3473 18.3526 2
5 10.4815 25.0787 20.5489 1
1 28.084 22.8914 20.9174 1
8 3.27778 2.16134 22.5532 2
6 25.6605 14.3474 23.3016 2
11 16.5183 3.50339 17.6525 3
ITEM: TIMESTEP
450
ITEM: NUMBER OF ATOMS
11
ITEM: BOX BOUNDS ff ff ff
0.0000000000000000e+00 3.1305960336348480e+01
0.0000000000000000e+00 3.1305960336348480e+01
0.0000000000000000e+00 3.1305960336348480e+01
ITEM: ATOMS id x y z type
4 19.0636 19.2368 8.11025 1
7 1.95178 1.82542 12.4689 2
3 26.6449 15.1791 26.239 1
2 22.7915 5.41476 3.19179 1
10 15.6439 14.8715 9.61802 2
9 25.6252 26.5057 18.4459 2
5 10.7813 25.173 20.1631 1
1 28.4145 22.5856 20.8512 1
8 3.32653 2.34602 22.4296 2
6 25.7372 14.4269 23.644 2
11 16.5245 3.49732 17.6311 3
ITEM: TIMESTEP
460
ITEM: NUMBER OF ATOMS
11
ITEM: BOX BOUNDS ff ff ff
0.0000000000000000e+00 3.1305960336348480e+01
0.0000000000000000e+00 3.1305960336348480e+01
0.0000000000000000e+00 3.1305960336348480e+01
ITEM: ATOMS id x y z type
4 18.9697 19.2295 8.32093 1
7 2.10045 1.92539 12.8322 2
3 26.6648 15.1444 26.147 1
2 22.9335 5.04534 3.14103 1
10 15.5291 14.9433 9.62128 2
9 25.6183 26.6633 18.5395 2
5 11.0783 25.2683 19.7809 1
1 28.7451 22.2804 20.7859 1
8 3.37616 2.52985 22.3057 2
6 25.8396 14.526 24.0611 2
11 16.5321 3.48901 17.6106 3
ITEM: TIMESTEP
470
ITEM: NUMBER OF ATOMS
11
ITEM: BOX BOUNDS ff ff ff
0.0000000000000000e+00 3.1305960336348480e+01
0.0000000000000000e+00 3.1305960336348480e+01
0.0000000000000000e+00 3.1305960336348480e+01
ITEM: ATOMS id x y z type
4 18.8758 19.2213 8.53056 1
7 2.24726 2.02338 13.1945 2
3 26.664 15.0959 26.0068 1
2 23.0756 4.67766 3.0919 1
10 15.414 15.0142 9.62357 2
9 25.6129 26.821 18.6348 2
5 11.3734 25.3647 19.4006 1
1 29.073 21.9768 20.7206 1
8 3.42679 2.71241 22.1829 2
6 25.9631 14.6403 24.5302 2
11 16.5409 3.47916 17.5899 3
ITEM: TIMESTEP
480
ITEM: NUMBER OF ATOMS
11
ITEM: BOX BOUNDS ff ff ff
0.0000000000000000e+00 3.1305960336348480e+01
0.0000000000000000e+00 3.1305960336348480e+01
0.0000000000000000e+00 3.1305960336348480e+01
ITEM: ATOMS id x y z type
4 18.7826 19.2122 8.73768 1
7 2.39276 2.1186 13.5556 2
3 26.652 15.0417 25.8445 1
2 23.2173 4.31106 3.04351 1
10 15.3012 15.0843 9.62715 2
9 25.6092 26.9792 18.7293 2
5 11.6674 25.4601 19.0229 1
1 29.3975 21.6739 20.6556 1
8 3.47915 2.89727 22.0608 2
6 26.0997 14.7624 25.0229 2
11 16.5496 3.46928 17.5686 3
ITEM: TIMESTEP
490
ITEM: NUMBER OF ATOMS
11
ITEM: BOX BOUNDS ff ff ff
0.0000000000000000e+00 3.1305960336348480e+01
0.0000000000000000e+00 3.1305960336348480e+01
0.0000000000000000e+00 3.1305960336348480e+01
ITEM: ATOMS id x y z type
4 18.6927 19.2 8.94554 1
7 2.53649 2.21259 13.9123 2
3 26.6463 14.9888 25.6848 1
2 23.3572 3.9464 2.99561 1
10 15.1915 15.1543 9.63295 2
9 25.606 27.1367 18.8235 2
5 11.9607 25.553 18.6479 1
1 29.7203 21.3722 20.5913 1
8 3.5325 3.08134 21.9388 2
6 26.2349 14.8832 25.5089 2
11 16.5596 3.4596 17.548 3
ITEM: TIMESTEP
500
ITEM: NUMBER OF ATOMS
11
ITEM: BOX BOUNDS ff ff ff
0.0000000000000000e+00 3.1305960336348480e+01
0.0000000000000000e+00 3.1305960336348480e+01
0.0000000000000000e+00 3.1305960336348480e+01
ITEM: ATOMS id x y z type
4 18.6044 19.1864 9.15091 1
7 2.67846 2.30661 14.2667 2
3 26.6626 14.9408 25.5336 1
2 23.4982 3.58568 2.94978 1
10 15.0828 15.2227 9.6373 2
9 25.6024 27.2967 18.9148 2
5 12.2529 25.6456 18.2751 1
1 30.0434 21.0719 20.528 1
8 3.58849 3.26359 21.8165 2
6 26.3462 14.9993 25.987 2
11 16.5694 3.44872 17.5273 3
ITEM: TIMESTEP
510
ITEM: NUMBER OF ATOMS
11
ITEM: BOX BOUNDS ff ff ff
0.0000000000000000e+00 3.1305960336348480e+01
0.0000000000000000e+00 3.1305960336348480e+01
0.0000000000000000e+00 3.1305960336348480e+01
ITEM: ATOMS id x y z type
4 18.5159 19.171 9.35392 1
7 2.82049 2.40093 14.6195 2
3 26.6921 14.8902 25.3695 1
2 23.6384 3.22811 2.90538 1
10 14.9741 15.2885 9.64185 2
9 25.6006 27.4569 19.0048 2
5 12.5452 25.7387 17.9056 1
1 30.3642 20.7725 20.4676 1
8 3.64641 3.44724 21.6924 2
6 26.4393 15.114 26.4759 2
11 16.5792 3.43828 17.5059 3
ITEM: TIMESTEP
520
ITEM: NUMBER OF ATOMS
11
ITEM: BOX BOUNDS ff ff ff
0.0000000000000000e+00 3.1305960336348480e+01
0.0000000000000000e+00 3.1305960336348480e+01
0.0000000000000000e+00 3.1305960336348480e+01
ITEM: ATOMS id x y z type
4 18.4273 19.1555 9.5565 1
7 2.96399 2.49519 14.9712 2
3 26.7223 14.8405 25.2079 1
2 23.7774 2.8704 2.86313 1
10 14.8657 15.354 9.64717 2
9 25.5982 27.6174 19.0957 2
5 12.8357 25.8311 17.5393 1
1 30.6822 20.4751 20.4081 1
8 3.7048 3.6321 21.5691 2
6 26.5319 15.2268 26.9576 2
11 16.5901 3.42781 17.4867 3
ITEM: TIMESTEP
530
ITEM: NUMBER OF ATOMS
11
ITEM: BOX BOUNDS ff ff ff
0.0000000000000000e+00 3.1305960336348480e+01
0.0000000000000000e+00 3.1305960336348480e+01
0.0000000000000000e+00 3.1305960336348480e+01
ITEM: ATOMS id x y z type
4 18.3413 19.1394 9.75855 1
7 3.10685 2.58854 15.3226 2
3 26.7469 14.798 25.0784 1
2 23.9144 2.51403 2.82132 1
10 14.7586 15.4199 9.65239 2
9 25.598 27.7756 19.1851 2
5 13.1245 25.9248 17.1761 1
1 30.9991 20.1802 20.3483 1
8 3.76462 3.81662 21.4478 2
6 26.6258 15.3351 27.4047 2
11 16.6017 3.41697 17.4691 3
ITEM: TIMESTEP
540
ITEM: NUMBER OF ATOMS
11
ITEM: BOX BOUNDS ff ff ff
0.0000000000000000e+00 3.1305960336348480e+01
0.0000000000000000e+00 3.1305960336348480e+01
0.0000000000000000e+00 3.1305960336348480e+01
ITEM: ATOMS id x y z type
4 18.2561 19.123 9.95988 1
7 3.2497 2.68079 15.6727 2
3 26.7663 14.77 25.0045 1
2 24.0491 2.1621 2.78029 1
10 14.6529 15.4847 9.65741 2
9 25.5961 27.9339 19.2732 2
5 13.4127 26.0182 16.8157 1
1 31.2968 19.8871 20.2869 1
8 3.82385 4.00149 21.3247 2
6 26.722 15.4304 27.7921 2
11 16.6144 3.40576 17.4529 3
ITEM: TIMESTEP
550
ITEM: NUMBER OF ATOMS
11
ITEM: BOX BOUNDS ff ff ff
0.0000000000000000e+00 3.1305960336348480e+01
0.0000000000000000e+00 3.1305960336348480e+01
0.0000000000000000e+00 3.1305960336348480e+01
ITEM: ATOMS id x y z type
4 18.1703 19.1058 10.1593 1