ITEM: TIMESTEP
0
ITEM: NUMBER OF ATOMS
100
ITEM: BOX BOUNDS ff ff ff
0.0000000000000000e+00 3.5200000000000003e+01
0.0000000000000000e+00 3.5200000000000003e+01
0.0000000000000000e+00 3.5200000000000003e+01
ITEM: ATOMS id x y z type
80 10.3747 22.7281 1.05342 2
52 32.5039 24.9544 0.0048134 2
46 1.44061 29.9285 0.431061 1
61 34.6509 28.0583 1.477 2
53 10.4988 30.2972 1.28461 2
70 28.1313 31.2962 1.51698 2
34 0.743344 32.5779 1.2731 1
72 5.43784 14.5832 2.7516 2
65 3.91746 16.8137 2.62192 2
6 30.2421 25.6856 4.67382 1
26 6.33123 34.6473 4.30217 1
95 5.96108 8.70454 5.94881 2
20 7.70619 17.1825 6.01216 1
1 2.05356 18.2653 6.00135 1
24 32.6065 23.0614 5.9387 1
32 27.8699 3.68234 7.43856 1
28 15.4807 20.9147 6.94863 1
51 33.8926 26.3203 6.37299 2
73 28.4586 6.1663 8.19722 2
74 32.9954 13.2368 7.65267 2
19 17.7732 6.41559 9.23661 1
22 34.7439 8.22932 9.45283 1
60 32.6523 18.4812 9.12721 2
59 10.7831 21.9683 9.1983 2
2 16.7242 11.9134 10.6064 1
49 12.3121 23.4512 10.7572 1
35 30.6422 26.7792 10.8293 1
7 21.6538 2.57262 12.4316 1
57 33.7807 10.8307 11.6125 2
67 19.8053 16.2299 11.9183 2
44 10.8017 18.2656 11.4478 1
10 0.613335 29.9229 11.8171 1
42 0.955239 3.49844 14.277 1
89 14.1698 23.8599 14.7603 2
90 22.0597 30.7838 14.2851 2
41 34.8397 34.2961 15.0502 1
88 30.4526 9.01715 15.252 2
78 10.6716 14.4081 16.2737 2
16 23.9379 23.5186 15.6304 1
31 15.3261 27.5271 15.1858 1
50 8.39477 9.3712 16.9166 1
14 26.2771 20.4357 16.6438 1
55 32.8704 24.5448 16.3804 2
79 8.1726 6.56064 18.2027 2
77 25.8067 34.3109 17.6226 2
84 31.7612 1.76673 19.7478 2
5 13.8715 8.41629 18.9139 1
11 12.0642 10.5358 18.9848 1
68 22.7266 11.4322 19.5905 2
82 20.6207 28.2625 19.7814 2
40 14.5606 9.67512 21.0232 1
17 3.14654 13.5539 21.1366 1
100 18.8088 22.8968 20.9488 2
58 22.5271 1.53228 21.7737 2
23 16.165 10.7685 22.4326 1
85 34.8746 22.8215 22.278 2
13 2.96095 27.0228 21.7118 1
75 32.7857 9.11606 23.1822 2
9 11.2125 22.3043 23.2182 1
76 30.2168 22.6205 22.761 2
54 12.7825 10.4146 23.8945 2
15 32.9438 24.9705 24.7673 1
91 26.1712 34.6527 24.3444 2
39 29.9347 34.8706 24.9385 1
48 8.10122 3.54727 25.4221 1
81 34.4862 7.10774 26.2583 2
83 2.64779 8.57587 25.8254 2
36 24.1026 11.3488 25.3016 1
86 4.26735 18.876 26.1453 2
37 27.9821 22.4971 25.4699 1
56 6.23217 24.1496 25.8423 2
38 4.8709 25.1569 25.5489 1
71 11.1501 29.5133 26.3516 2
92 26.7113 30.6338 26.3301 2
94 24.729 13.5187 27.5392 2
87 22.393 0.00794516 27.9344 2
25 19.7733 7.28169 28.09 1
97 27.8873 14.212 28.2527 2
66 31.4227 15.8748 27.6971 2
45 34.3971 23.0795 28.6678 1
18 4.11499 27.8421 28.6331 1
69 32.3136 29.1364 27.8253 2
47 28.8415 0.27612 29.5436 1
33 24.5944 5.00521 29.6981 1
27 5.8457 5.42823 29.1105 1
8 26.2724 10.6579 29.7972 1
93 30.2122 16.0907 29.9488 2
62 7.98311 24.8912 29.0471 2
21 22.4021 12.4193 30.8625 1
63 6.1177 0.969474 31.55 2
30 7.19182 31.3692 31.9546 1
3 8.18903 0.954905 33.0945 1
96 13.733 4.57189 33.2811 2
4 23.3696 11.1901 33.8185 1
99 30.8005 12.8781 32.8764 2
43 29.616 28.9252 33.2717 1
64 8.42115 30.3389 33.4368 2
98 30.6803 33.5328 33.497 2
12 24.4778 16.4596 34.53 1
29 27.2346 25.7879 34.2852 1
ITEM: TIMESTEP
100
ITEM: NUMBER OF ATOMS
100
ITEM: BOX BOUNDS ff ff ff
0.0000000000000000e+00 3.5200000000000003e+01
0.0000000000000000e+00 3.5200000000000003e+01
0.0000000000000000e+00 3.5200000000000003e+01
ITEM: ATOMS id x y z type
1 10.3747 22.7281 1.05342 2
2 32.5039 24.9544 0.0048134 2
3 1.44061 29.9285 0.431061 1
4 34.6509 28.0583 1.477 2
5 10.4988 30.2972 1.28461 2
6 28.1313 31.2962 1.51698 2
7 0.743344 32.5779 1.2731 1
8 5.43784 14.5832 2.7516 2
9 3.91746 16.8137 2.62192 2
10 30.2421 25.6856 4.67382 1
11 6.33123 34.6473 4.30217 1
12 5.96108 8.70454 5.94881 2
13 7.70619 17.1825 6.01216 1
14 2.05356 18.2653 6.00135 1
15 32.6065 23.0614 5.9387 1
16 27.8699 3.68234 7.43856 1
17 15.4807 20.9147 6.94863 1
18 33.8926 26.3203 6.37299 2
19 28.4586 6.1663 8.19722 2
20 32.9954 13.2368 7.65267 2
21 17.7732 6.41559 9.23661 1
22 34.7439 8.22932 9.45283 1
23 32.6523 18.4812 9.12721 2
24 10.7831 21.9683 9.1983 2
25 16.7242 11.9134 10.6064 1
26 12.3121 23.4512 10.7572 1
27 30.6422 26.7792 10.8293 1
28 21.6538 2.57262 12.4316 1
29 33.7807 10.8307 11.6125 2
30 19.8053 16.2299 11.9183 2
31 10.8017 18.2656 11.4478 1
32 0.613335 29.9229 11.8171 1
33 0.955239 3.49844 14.277 1
34 14.1698 23.8599 14.7603 2
35 22.0597 30.7838 14.2851 2
36 34.8397 34.2961 15.0502 1
37 30.4526 9.01715 15.252 2
38 10.6716 14.4081 16.2737 2
39 23.9379 23.5186 15.6304 1
40 15.3261 27.5271 15.1858 1
41 8.39477 9.3712 16.9166 1
42 26.2771 20.4357 16.6438 1
43 32.8704 24.5448 16.3804 2
44 8.1726 6.56064 18.2027 2
45 25.8067 34.3109 17.6226 2
46 31.7612 1.76673 19.7478 2
47 13.8715 8.41629 18.9139 1
48 12.0642 10.5358 18.9848 1
49 22.7266 11.4322 19.5905 2
50 20.6207 28.2625 19.7814 2
51 14.5955 9.6989 21.0539 1
52 3.14654 13.5539 21.1366 1
53 18.8088 22.8968 20.9488 2
54 22.5271 1.53228 21.7737 2
55 16.1301 10.7447 22.4019 1
56 34.8746 22.8215 22.278 2
57 2.96095 27.0228 21.7118 1
58 32.7857 9.11606 23.1822 2
59 11.2125 22.3043 23.2182 1
60 30.2168 22.6205 22.761 2
61 12.7825 10.4146 23.8945 2
62 32.9438 24.9705 24.7673 1
63 26.1712 34.6527 24.3444 2
64 29.9347 34.8706 24.9385 1
65 8.10122 3.54727 25.4221 1
66 34.4862 7.10774 26.2583 2
67 2.64779 8.57587 25.8254 2
68 24.1026 11.3488 25.3016 1
69 4.26735 18.876 26.1453 2
70 27.9821 22.4971 25.4699 1
71 4.95521 25.0945 25.567 1
72 6.14786 24.212 25.8241 2
73 11.1501 29.5133 26.3516 2
74 26.7113 30.6338 26.3301 2
75 24.729 13.5187 27.5392 2
76 22.393 0.00794516 27.9344 2
77 19.7733 7.28169 28.09 1
78 27.8873 14.212 28.2527 2
79 31.4227 15.8748 27.6971 2
80 34.3971 23.0795 28.6678 1
81 4.11499 27.8421 28.6331 1
82 32.3136 29.1364 27.8253 2
83 28.8415 0.27612 29.5436 1
84 24.5944 5.00521 29.6981 1
85 5.8457 5.42823 29.1105 1
86 26.2724 10.6579 29.7972 1
87 30.2122 16.0907 29.9488 2
88 7.98311 24.8912 29.0471 2
89 22.4021 12.4193 30.8625 1
90 6.1177 0.969474 31.55 2
91 7.25178 31.319 32.0269 1
92 8.18903 0.954905 33.0945 1
93 13.733 4.57189 33.2811 2
94 23.3696 11.1901 33.8185 1
95 30.8005 12.8781 32.8764 2
96 29.616 28.9252 33.2717 1
97 8.3612 30.3891 33.3645 2
98 30.6803 33.5328 33.497 2
99 24.4778 16.4596 34.53 1
100 27.2346 25.7879 34.2852 1
ITEM: TIMESTEP
200
ITEM: NUMBER OF ATOMS
100
ITEM: BOX BOUNDS ff ff ff
0.0000000000000000e+00 3.5200000000000003e+01
0.0000000000000000e+00 3.5200000000000003e+01
0.0000000000000000e+00 3.5200000000000003e+01
ITEM: ATOMS id x y z type
1 10.3747 22.7281 1.05342 2
2 32.5039 24.9544 0.0048134 2
3 1.44061 29.9285 0.431061 1
4 34.6509 28.0583 1.477 2
5 10.4988 30.2972 1.28461 2
6 28.1313 31.2962 1.51698 2
7 0.743344 32.5779 1.2731 1
8 5.43784 14.5832 2.7516 2
9 3.91746 16.8137 2.62192 2
10 30.2421 25.6856 4.67382 1
11 6.33123 34.6473 4.30217 1
12 5.96108 8.70454 5.94881 2
13 7.70619 17.1825 6.01216 1
14 2.05356 18.2653 6.00135 1
15 32.6065 23.0614 5.9387 1
16 27.8699 3.68234 7.43856 1
17 15.4807 20.9147 6.94863 1
18 33.8926 26.3203 6.37299 2
19 28.4586 6.1663 8.19722 2
20 32.9954 13.2368 7.65267 2
21 17.7732 6.41559 9.23661 1
22 34.7439 8.22932 9.45283 1
23 32.6523 18.4812 9.12721 2
24 10.7831 21.9683 9.1983 2
25 16.7242 11.9134 10.6064 1
26 12.3121 23.4512 10.7572 1
27 30.6422 26.7792 10.8293 1
28 21.6538 2.57262 12.4316 1
29 33.7807 10.8307 11.6125 2
30 19.8053 16.2299 11.9183 2
31 10.8017 18.2656 11.4478 1
32 0.613335 29.9229 11.8171 1
33 0.955239 3.49844 14.277 1
34 14.1698 23.8599 14.7603 2
35 22.0597 30.7838 14.2851 2
36 34.8397 34.2961 15.0502 1
37 30.4526 9.01715 15.252 2
38 10.6716 14.4081 16.2737 2
39 23.9379 23.5186 15.6304 1
40 15.3261 27.5271 15.1858 1
41 8.39477 9.3712 16.9166 1
42 26.2771 20.4357 16.6438 1
43 32.8704 24.5448 16.3804 2
44 8.1726 6.56064 18.2027 2
45 25.8067 34.3109 17.6226 2
46 31.7612 1.76673 19.7478 2
47 13.8715 8.41629 18.9139 1
48 12.0642 10.5358 18.9848 1
49 22.7266 11.4322 19.5905 2
50 20.6207 28.2625 19.7814 2
51 14.7333 9.79282 21.1749 1
52 3.14654 13.5539 21.1366 1
53 18.8088 22.8968 20.9488 2
54 22.5271 1.53228 21.7737 2
55 15.9922 10.6508 22.2809 1
56 34.8746 22.8215 22.278 2
57 2.96095 27.0228 21.7118 1
58 32.7857 9.11606 23.1822 2
59 11.2125 22.3043 23.2182 1
60 30.2168 22.6205 22.761 2
61 12.7825 10.4146 23.8945 2
62 32.9438 24.9705 24.7673 1
63 26.1712 34.6527 24.3444 2
64 29.9347 34.8706 24.9385 1
65 8.10122 3.54727 25.4221 1
66 34.4862 7.10774 26.2583 2
67 2.64779 8.57587 25.8254 2
68 24.1026 11.3488 25.3016 1
69 4.26735 18.876 26.1453 2
70 27.9821 22.4971 25.4699 1
71 5.02195 25.0452 25.5814 1
72 6.08112 24.2614 25.8097 2
73 11.1501 29.5133 26.3516 2
74 26.7113 30.6338 26.3301 2
75 24.729 13.5187 27.5392 2
76 22.393 0.00794516 27.9344 2
77 19.7733 7.28169 28.09 1
78 27.8873 14.212 28.2527 2
79 31.4227 15.8748 27.6971 2
80 34.3971 23.0795 28.6678 1
81 4.11499 27.8421 28.6331 1
82 32.3136 29.1364 27.8253 2
83 28.8415 0.27612 29.5436 1
84 24.5944 5.00521 29.6981 1
85 5.8457 5.42823 29.1105 1
86 26.2724 10.6579 29.7972 1
87 30.2122 16.0907 29.9488 2
88 7.98311 24.8912 29.0471 2
89 22.4021 12.4193 30.8625 1
90 6.1177 0.969474 31.55 2
91 7.41028 31.1861 32.218 1
92 8.18903 0.954905 33.0945 1
93 13.733 4.57189 33.2811 2
94 23.3696 11.1901 33.8185 1
95 30.8005 12.8781 32.8764 2
96 29.616 28.9252 33.2717 1
97 8.2027 30.522 33.1734 2
98 30.6803 33.5328 33.497 2
99 24.4778 16.4596 34.53 1
100 27.2346 25.7879 34.2852 1
ITEM: TIMESTEP
300
ITEM: NUMBER OF ATOMS
100
ITEM: BOX BOUNDS ff ff ff
0.0000000000000000e+00 3.5200000000000003e+01
0.0000000000000000e+00 3.5200000000000003e+01
0.0000000000000000e+00 3.5200000000000003e+01
ITEM: ATOMS id x y z type
1 10.3747 22.7281 1.05342 2
2 32.5039 24.9544 0.0048134 2
3 1.44061 29.9285 0.431061 1
4 34.6509 28.0583 1.477 2
5 10.4988 30.2972 1.28461 2
6 28.1313 31.2962 1.51698 2
7 0.743344 32.5779 1.2731 1
8 5.43784 14.5832 2.7516 2
9 3.91746 16.8137 2.62192 2
10 30.2421 25.6856 4.67382 1
11 6.33123 34.6473 4.30217 1
12 5.96108 8.70454 5.94881 2
13 7.70619 17.1825 6.01216 1
14 2.05356 18.2653 6.00135 1
15 32.6065 23.0614 5.9387 1
16 27.8699 3.68234 7.43856 1
17 15.4807 20.9147 6.94863 1
18 33.8926 26.3203 6.37299 2
19 28.4586 6.1663 8.19722 2
20 32.9954 13.2368 7.65267 2
21 17.7732 6.41559 9.23661 1
22 34.7439 8.22932 9.45283 1
23 32.6523 18.4812 9.12721 2
24 10.7831 21.9683 9.1983 2
25 16.7242 11.9134 10.6064 1
26 12.3121 23.4512 10.7572 1
27 30.6422 26.7792 10.8293 1
28 21.6538 2.57262 12.4316 1
29 33.7807 10.8307 11.6125 2
30 19.8053 16.2299 11.9183 2
31 10.8017 18.2656 11.4478 1
32 0.613335 29.9229 11.8171 1
33 0.955239 3.49844 14.277 1
34 14.1698 23.8599 14.7603 2
35 22.0597 30.7838 14.2851 2
36 34.8397 34.2961 15.0502 1
37 30.4526 9.01715 15.252 2
38 10.6716 14.4081 16.2737 2
39 23.9379 23.5186 15.6304 1
40 15.3261 27.5271 15.1858 1
41 8.39477 9.3712 16.9166 1
42 26.2771 20.4357 16.6438 1
43 32.8704 24.5448 16.3804 2
44 8.1726 6.56064 18.2027 2
45 25.8067 34.3109 17.6226 2
46 31.7612 1.76673 19.7478 2
47 13.8715 8.41629 18.9139 1
48 12.0642 10.5358 18.9848 1
49 22.7266 11.4322 19.5905 2
50 20.6207 28.2625 19.7814 2
51 14.8029 9.84026 21.2361 1
52 3.14654 13.5539 21.1366 1
53 18.8088 22.8968 20.9488 2
54 22.5271 1.53228 21.7737 2
55 15.9226 10.6033 22.2197 1
56 34.8746 22.8215 22.278 2
57 2.96095 27.0228 21.7118 1
58 32.7857 9.11606 23.1822 2
59 11.2125 22.3043 23.2182 1
60 30.2168 22.6205 22.761 2
61 12.7825 10.4146 23.8945 2
62 32.9438 24.9705 24.7673 1
63 26.1712 34.6527 24.3444 2
64 29.9347 34.8706 24.9385 1
65 8.10122 3.54727 25.4221 1
66 34.4862 7.10774 26.2583 2
67 2.64779 8.57587 25.8254 2
68 24.1026 11.3488 25.3016 1
69 4.26735 18.876 26.1453 2
70 27.9821 22.4971 25.4699 1
71 6.22688 24.1535 25.8412 2
72 4.87619 25.153 25.55 1
73 11.1501 29.5133 26.3516 2
74 26.7113 30.6338 26.3301 2
75 24.729 13.5187 27.5392 2
76 22.393 0.00794516 27.9344 2
77 19.7733 7.28169 28.09 1
78 27.8873 14.212 28.2527 2
79 31.4227 15.8748 27.6971 2
80 34.3971 23.0795 28.6678 1
81 4.11499 27.8421 28.6331 1
82 32.3136 29.1364 27.8253 2
83 28.8415 0.27612 29.5436 1
84 24.5944 5.00521 29.6981 1
85 5.8457 5.42823 29.1105 1
86 26.2724 10.6579 29.7972 1
87 30.2122 16.0907 29.9488 2
88 7.98311 24.8912 29.0471 2
89 22.4021 12.4193 30.8625 1
90 6.1177 0.969474 31.55 2
91 7.21327 31.3512 31.9805 1
92 8.18903 0.954905 33.0945 1
93 13.733 4.57189 33.2811 2
94 23.3696 11.1901 33.8185 1
95 30.8005 12.8781 32.8764 2
96 29.616 28.9252 33.2717 1
97 8.39971 30.3568 33.4109 2
98 30.6803 33.5328 33.497 2
99 24.4778 16.4596 34.53 1
100 27.2346 25.7879 34.2852 1
ITEM: TIMESTEP
400
ITEM: NUMBER OF ATOMS
100
ITEM: BOX BOUNDS ff ff ff
0.0000000000000000e+00 3.5200000000000003e+01
0.0000000000000000e+00 3.5200000000000003e+01
0.0000000000000000e+00 3.5200000000000003e+01
ITEM: ATOMS id x y z type
1 10.3747 22.7281 1.05342 2
2 32.5039 24.9544 0.0048134 2
3 1.44061 29.9285 0.431061 1
4 34.6509 28.0583 1.477 2
5 10.4988 30.2972 1.28461 2
6 28.1313 31.2962 1.51698 2
7 0.743344 32.5779 1.2731 1
8 5.43784 14.5832 2.7516 2
9 3.91746 16.8137 2.62192 2
10 30.2421 25.6856 4.67382 1
11 6.33123 34.6473 4.30217 1
12 5.96108 8.70454 5.94881 2
13 7.70619 17.1825 6.01216 1
14 2.05356 18.2653 6.00135 1
15 32.6065 23.0614 5.9387 1
16 27.8699 3.68234 7.43856 1
17 15.4807 20.9147 6.94863 1
18 33.8926 26.3203 6.37299 2
19 28.4586 6.1663 8.19722 2
20 32.9954 13.2368 7.65267 2
21 17.7732 6.41559 9.23661 1
22 34.7439 8.22932 9.45283 1
23 32.6523 18.4812 9.12721 2
24 10.7831 21.9683 9.1983 2
25 16.7242 11.9134 10.6064 1
26 12.3121 23.4512 10.7572 1
27 30.6422 26.7792 10.8293 1
28 21.6538 2.57262 12.4316 1
29 33.7807 10.8307 11.6125 2
30 19.8053 16.2299 11.9183 2
31 10.8017 18.2656 11.4478 1
32 0.613335 29.9229 11.8171 1
33 0.955239 3.49844 14.277 1
34 14.1698 23.8599 14.7603 2
35 22.0597 30.7838 14.2851 2
36 34.8397 34.2961 15.0502 1
37 30.4526 9.01715 15.252 2
38 10.6716 14.4081 16.2737 2
39 23.9379 23.5186 15.6304 1
40 15.3261 27.5271 15.1858 1
41 8.39477 9.3712 16.9166 1
42 26.2771 20.4357 16.6438 1
43 32.8704 24.5448 16.3804 2
44 8.1726 6.56064 18.2027 2
45 25.8067 34.3109 17.6226 2
46 31.7612 1.76673 19.7478 2
47 13.8715 8.41629 18.9139 1
48 12.0642 10.5358 18.9848 1
49 22.7266 11.4322 19.5905 2
50 20.6207 28.2625 19.7814 2
51 14.6157 9.71269 21.0716 1
52 3.14654 13.5539 21.1366 1
53 18.8088 22.8968 20.9488 2
54 22.5271 1.53228 21.7737 2
55 16.1098 10.7309 22.3842 1
56 34.8746 22.8215 22.278 2
57 2.96095 27.0228 21.7118 1
58 32.7857 9.11606 23.1822 2
59 11.2125 22.3043 23.2182 1
60 30.2168 22.6205 22.761 2
61 12.7825 10.4146 23.8945 2
62 32.9438 24.9705 24.7673 1
63 26.1712 34.6527 24.3444 2
64 29.9347 34.8706 24.9385 1
65 8.10122 3.54727 25.4221 1
66 34.4862 7.10774 26.2583 2
67 2.64779 8.57587 25.8254 2
68 24.1026 11.3488 25.3016 1
69 4.26735 18.876 26.1453 2
70 27.9821 22.4971 25.4699 1
71 4.91318 25.1257 25.558 1
72 6.1899 24.1809 25.8332 2
73 11.1501 29.5133 26.3516 2
74 26.7113 30.6338 26.3301 2
75 24.729 13.5187 27.5392 2
76 22.393 0.00794516 27.9344 2
77 19.7733 7.28169 28.09 1
78 27.8873 14.212 28.2527 2
79 31.4227 15.8748 27.6971 2
80 34.3971 23.0795 28.6678 1
81 4.11499 27.8421 28.6331 1
82 32.3136 29.1364 27.8253 2
83 28.8415 0.27612 29.5436 1
84 24.5944 5.00521 29.6981 1
85 5.8457 5.42823 29.1105 1
86 26.2724 10.6579 29.7972 1
87 30.2122 16.0907 29.9488 2
88 7.98311 24.8912 29.0471 2
89 22.4021 12.4193 30.8625 1
90 6.1177 0.969474 31.55 2
91 7.19962 31.3627 31.964 1
92 8.18903 0.954905 33.0945 1
93 13.733 4.57189 33.2811 2
94 23.3696 11.1901 33.8185 1
95 30.8005 12.8781 32.8764 2
96 29.616 28.9252 33.2717 1
97 8.41336 30.3454 33.4274 2
98 30.6803 33.5328 33.497 2
99 24.4778 16.4596 34.53 1
100 27.2346 25.7879 34.2852 1
ITEM: TIMESTEP
500
ITEM: NUMBER OF ATOMS
100
ITEM: BOX BOUNDS ff ff ff
0.0000000000000000e+00 3.5200000000000003e+01
0.0000000000000000e+00 3.5200000000000003e+01
0.0000000000000000e+00 3.5200000000000003e+01
ITEM: ATOMS id x y z type
1 10.3747 22.7281 1.05342 2
2 32.5039 24.9544 0.0048134 2
3 1.44061 29.9285 0.431061 1
4 34.6509 28.0583 1.477 2
5 10.4988 30.2972 1.28461 2
6 28.1313 31.2962 1.51698 2
7 0.743344 32.5779 1.2731 1
8 5.43784 14.5832 2.7516 2
9 3.91746 16.8137 2.62192 2
10 30.2421 25.6856 4.67382 1
11 6.33123 34.6473 4.30217 1
12 5.96108 8.70454 5.94881 2
13 7.70619 17.1825 6.01216 1
14 2.05356 18.2653 6.00135 1
15 32.6065 23.0614 5.9387 1
16 27.8699 3.68234 7.43856 1
17 15.4807 20.9147 6.94863 1
18 33.8926 26.3203 6.37299 2
19 28.4586 6.1663 8.19722 2
20 32.9954 13.2368 7.65267 2
21 17.7732 6.41559 9.23661 1
22 34.7439 8.22932 9.45283 1
23 32.6523 18.4812 9.12721 2
24 10.7831 21.9683 9.1983 2
25 16.7242 11.9134 10.6064 1
26 12.3121 23.4512 10.7572 1
27 30.6422 26.7792 10.8293 1
28 21.6538 2.57262 12.4316 1
29 33.7807 10.8307 11.6125 2
30 19.8053 16.2299 11.9183 2
31 10.8017 18.2656 11.4478 1
32 0.613335 29.9229 11.8171 1
33 0.955239 3.49844 14.277 1
34 14.1698 23.8599 14.7603 2
35 22.0597 30.7838 14.2851 2
36 34.8397 34.2961 15.0502 1
37 30.4526 9.01715 15.252 2
38 10.6716 14.4081 16.2737 2
39 23.9379 23.5186 15.6304 1
40 15.3261 27.5271 15.1858 1
41 8.39477 9.3712 16.9166 1
42 26.2771 20.4357 16.6438 1
43 32.8704 24.5448 16.3804 2
44 8.1726 6.56064 18.2027 2
45 25.8067 34.3109 17.6226 2
46 31.7612 1.76673 19.7478 2
47 13.8715 8.41629 18.9139 1
48 12.0642 10.5358 18.9848 1
49 22.7266 11.4322 19.5905 2
50 20.6207 28.2625 19.7814 2
51 14.5625 9.67641 21.0249 1
52 3.14654 13.5539 21.1366 1
53 18.8088 22.8968 20.9488 2
54 22.5271 1.53228 21.7737 2
55 16.1631 10.7672 22.4309 1
56 34.8746 22.8215 22.278 2
57 2.96095 27.0228 21.7118 1
58 32.7857 9.11606 23.1822 2
59 11.2125 22.3043 23.2182 1
60 30.2168 22.6205 22.761 2
61 12.7825 10.4146 23.8945 2
62 32.9438 24.9705 24.7673 1
63 26.1712 34.6527 24.3444 2
64 29.9347 34.8706 24.9385 1
65 8.10122 3.54727 25.4221 1
66 34.4862 7.10774 26.2583 2
67 2.64779 8.57587 25.8254 2
68 24.1026 11.3488 25.3016 1
69 4.26735 18.876 26.1453 2
70 27.9821 22.4971 25.4699 1
71 5.12776 24.9669 25.6042 1
72 5.97531 24.3397 25.7869 2
73 11.1501 29.5133 26.3516 2
74 26.7113 30.6338 26.3301 2
75 24.729 13.5187 27.5392 2
76 22.393 0.00794516 27.9344 2
77 19.7733 7.28169 28.09 1
78 27.8873 14.212 28.2527 2
79 31.4227 15.8748 27.6971 2
80 34.3971 23.0795 28.6678 1
81 4.11499 27.8421 28.6331 1
82 32.3136 29.1364 27.8253 2
83 28.8415 0.27612 29.5436 1
84 24.5944 5.00521 29.6981 1
85 5.8457 5.42823 29.1105 1
86 26.2724 10.6579 29.7972 1
87 30.2122 16.0907 29.9488 2
88 7.98311 24.8912 29.0471 2
89 22.4021 12.4193 30.8625 1
90 6.1177 0.969474 31.55 2
91 7.32372 31.2587 32.1137 1
92 8.18903 0.954905 33.0945 1
93 13.733 4.57189 33.2811 2
94 23.3696 11.1901 33.8185 1
95 30.8005 12.8781 32.8764 2
96 29.616 28.9252 33.2717 1
97 8.28925 30.4494 33.2778 2
98 30.6803 33.5328 33.497 2
99 24.4778 16.4596 34.53 1
100 27.2346 25.7879 34.2852 1
ITEM: TIMESTEP
600
ITEM: NUMBER OF ATOMS
100
ITEM: BOX BOUNDS ff ff ff
0.0000000000000000e+00 3.5200000000000003e+01
0.0000000000000000e+00 3.5200000000000003e+01
0.0000000000000000e+00 3.5200000000000003e+01
ITEM: ATOMS id x y z type
1 10.3747 22.7281 1.05342 2
2 32.5039 24.9544 0.0048134 2
3 1.44061 29.9285 0.431061 1
4 34.6509 28.0583 1.477 2
5 10.4988 30.2972 1.28461 2
6 28.1313 31.2962 1.51698 2
7 0.743344 32.5779 1.2731 1
8 5.43784 14.5832 2.7516 2
9 3.91746 16.8137 2.62192 2
10 30.2421 25.6856 4.67382 1
11 6.33123 34.6473 4.30217 1
12 5.96108 8.70454 5.94881 2
13 7.70619 17.1825 6.01216 1
14 2.05356 18.2653 6.00135 1
15 32.6065 23.0614 5.9387 1
16 27.8699 3.68234 7.43856 1
17 15.4807 20.9147 6.94863 1
18 33.8926 26.3203 6.37299 2
19 28.4586 6.1663 8.19722 2
20 32.9954 13.2368 7.65267 2
21 17.7732 6.41559 9.23661 1
22 34.7439 8.22932 9.45283 1
23 32.6523 18.4812 9.12721 2
24 10.7831 21.9683 9.1983 2
25 16.7242 11.9134 10.6064 1
26 12.3121 23.4512 10.7572 1
27 30.6422 26.7792 10.8293 1
28 21.6538 2.57262 12.4316 1
29 33.7807 10.8307 11.6125 2
30 19.8053 16.2299 11.9183 2
31 10.8017 18.2656 11.4478 1
32 0.613335 29.9229 11.8171 1
33 0.955239 3.49844 14.277 1
34 14.1698 23.8599 14.7603 2
35 22.0597 30.7838 14.2851 2
36 34.8397 34.2961 15.0502 1
37 30.4526 9.01715 15.252 2
38 10.6716 14.4081 16.2737 2
39 23.9379 23.5186 15.6304 1
40 15.3261 27.5271 15.1858 1
41 8.39477 9.3712 16.9166 1
42 26.2771 20.4357 16.6438 1
43 32.8704 24.5448 16.3804 2
44 8.1726 6.56064 18.2027 2
45 25.8067 34.3109 17.6226 2
46 31.7612 1.76673 19.7478 2
47 13.8715 8.41629 18.9139 1
48 12.0642 10.5358 18.9848 1
49 22.7266 11.4322 19.5905 2
50 20.6207 28.2625 19.7814 2
51 14.5804 9.68862 21.0406 1
52 3.14654 13.5539 21.1366 1
53 18.8088 22.8968 20.9488 2
54 22.5271 1.53228 21.7737 2
55 16.1452 10.755 22.4152 1
56 34.8746 22.8215 22.278 2
57 2.96095 27.0228 21.7118 1
58 32.7857 9.11606 23.1822 2
59 11.2125 22.3043 23.2182 1
60 30.2168 22.6205 22.761 2
61 12.7825 10.4146 23.8945 2
62 32.9438 24.9705 24.7673 1
63 26.1712 34.6527 24.3444 2
64 29.9347 34.8706 24.9385 1
65 8.10122 3.54727 25.4221 1
66 34.4862 7.10774 26.2583 2
67 2.64779 8.57587 25.8254 2
68 24.1026 11.3488 25.3016 1
69 4.26735 18.876 26.1453 2
70 27.9821 22.4971 25.4699 1
72 4.89262 25.1409 25.5535 1
71 6.21045 24.1656 25.8376 2
73 11.1501 29.5133 26.3516 2
74 26.7113 30.6338 26.3301 2
75 24.729 13.5187 27.5392 2
76 22.393 0.00794516 27.9344 2
77 19.7733 7.28169 28.09 1
78 27.8873 14.212 28.2527 2
79 31.4227 15.8748 27.6971 2
80 34.3971 23.0795 28.6678 1
81 4.11499 27.8421 28.6331 1
82 32.3136 29.1364 27.8253 2
83 28.8415 0.27612 29.5436 1
84 24.5944 5.00521 29.6981 1
85 5.8457 5.42823 29.1105 1
86 26.2724 10.6579 29.7972 1
87 30.2122 16.0907 29.9488 2
88 7.98311 24.8912 29.0471 2
89 22.4021 12.4193 30.8625 1
90 6.1177 0.969474 31.55 2
91 7.29202 31.2852 32.0754 1
92 8.18903 0.954905 33.0945 1
93 13.733 4.57189 33.2811 2
94 23.3696 11.1901 33.8185 1
95 30.8005 12.8781 32.8764 2
96 29.616 28.9252 33.2717 1
97 8.32096 30.4228 33.316 2
98 30.6803 33.5328 33.497 2
99 24.4778 16.4596 34.53 1
100 27.2346 25.7879 34.2852 1
ITEM: TIMESTEP
700
ITEM: NUMBER OF ATOMS
100
ITEM: BOX BOUNDS ff ff ff
0.0000000000000000e+00 3.5200000000000003e+01
0.0000000000000000e+00 3.5200000000000003e+01
0.0000000000000000e+00 3.5200000000000003e+01
ITEM: ATOMS id x y z type
1 10.3747 22.7281 1.05342 2
2 32.5039 24.9544 0.0048134 2
3 1.44061 29.9285 0.431061 1
4 34.6509 28.0583 1.477 2
5 10.4988 30.2972 1.28461 2
6 28.1313 31.2962 1.51698 2
7 0.743344 32.5779 1.2731 1
8 5.43784 14.5832 2.7516 2
9 3.91746 16.8137 2.62192 2
10 30.2421 25.6856 4.67382 1
11 6.33123 34.6473 4.30217 1
12 5.96108 8.70454 5.94881 2
13 7.70619 17.1825 6.01216 1
14 2.05356 18.2653 6.00135 1
15 32.6065 23.0614 5.9387 1
16 27.8699 3.68234 7.43856 1
17 15.4807 20.9147 6.94863 1
18 33.8926 26.3203 6.37299 2
19 28.4586 6.1663 8.19722 2
20 32.9954 13.2368 7.65267 2
21 17.7732 6.41559 9.23661 1
22 34.7439 8.22932 9.45283 1
23 32.6523 18.4812 9.12721 2
24 10.7831 21.9683 9.1983 2
25 16.7242 11.9134 10.6064 1
26 12.3121 23.4512 10.7572 1
27 30.6422 26.7792 10.8293 1
28 21.6538 2.57262 12.4316 1
29 33.7807 10.8307 11.6125 2
30 19.8053 16.2299 11.9183 2
31 10.8017 18.2656 11.4478 1
32 0.613335 29.9229 11.8171 1
33 0.955239 3.49844 14.277 1
34 14.1698 23.8599 14.7603 2
35 22.0597 30.7838 14.2851 2
36 34.8397 34.2961 15.0502 1
37 30.4526 9.01715 15.252 2
38 10.6716 14.4081 16.2737 2
39 23.9379 23.5186 15.6304 1
40 15.3261 27.5271 15.1858 1
41 8.39477 9.3712 16.9166 1
42 26.2771 20.4357 16.6438 1
43 32.8704 24.5448 16.3804 2
44 8.1726 6.56064 18.2027 2
45 25.8067 34.3109 17.6226 2
46 31.7612 1.76673 19.7478 2
47 13.8715 8.41629 18.9139 1
48 12.0642 10.5358 18.9848 1
49 22.7266 11.4322 19.5905 2
50 20.6207 28.2625 19.7814 2
51 14.6846 9.75966 21.1322 1
52 3.14654 13.5539 21.1366 1
53 18.8088 22.8968 20.9488 2
54 22.5271 1.53228 21.7737 2
55 16.0409 10.6839 22.3236 1
56 34.8746 22.8215 22.278 2
57 2.96095 27.0228 21.7118 1
58 32.7857 9.11606 23.1822 2
59 11.2125 22.3043 23.2182 1
60 30.2168 22.6205 22.761 2
61 12.7825 10.4146 23.8945 2
62 32.9438 24.9705 24.7673 1
63 26.1712 34.6527 24.3444 2
64 29.9347 34.8706 24.9385 1
65 8.10122 3.54727 25.4221 1
66 34.4862 7.10774 26.2583 2
67 2.64779 8.57587 25.8254 2
68 24.1026 11.3488 25.3016 1
69 4.26735 18.876 26.1453 2
70 27.9821 22.4971 25.4699 1
72 6.21579 24.1617 25.8388 2
71 4.88728 25.1448 25.5524 1
73 11.1501 29.5133 26.3516 2
74 26.7113 30.6338 26.3301 2
75 24.729 13.5187 27.5392 2
76 22.393 0.00794516 27.9344 2
77 19.7733 7.28169 28.09 1
78 27.8873 14.212 28.2527 2
79 31.4227 15.8748 27.6971 2
80 34.3971 23.0795 28.6678 1
81 4.11499 27.8421 28.6331 1
82 32.3136 29.1364 27.8253 2
83 28.8415 0.27612 29.5436 1
84 24.5944 5.00521 29.6981 1
85 5.8457 5.42823 29.1105 1
86 26.2724 10.6579 29.7972 1
87 30.2122 16.0907 29.9488 2
88 7.98311 24.8912 29.0471 2
89 22.4021 12.4193 30.8625 1
90 6.1177 0.969474 31.55 2
91 7.19496 31.3666 31.9584 1
92 8.18903 0.954905 33.0945 1
93 13.733 4.57189 33.2811 2
94 23.3696 11.1901 33.8185 1
95 30.8005 12.8781 32.8764 2
96 29.616 28.9252 33.2717 1
97 8.41801 30.3415 33.433 2
98 30.6803 33.5328 33.497 2
99 24.4778 16.4596 34.53 1
100 27.2346 25.7879 34.2852 1
ITEM: TIMESTEP
800
ITEM: NUMBER OF ATOMS
100
ITEM: BOX BOUNDS ff ff ff
0.0000000000000000e+00 3.5200000000000003e+01
0.0000000000000000e+00 3.5200000000000003e+01
0.0000000000000000e+00 3.5200000000000003e+01
ITEM: ATOMS id x y z type
1 10.3747 22.7281 1.05342 2
2 32.5039 24.9544 0.0048134 2
3 1.44061 29.9285 0.431061 1
4 34.6509 28.0583 1.477 2
5 10.4988 30.2972 1.28461 2
6 28.1313 31.2962 1.51698 2
7 0.743344 32.5779 1.2731 1
8 5.43784 14.5832 2.7516 2
9 3.91746 16.8137 2.62192 2
10 30.2421 25.6856 4.67382 1
11 6.33123 34.6473 4.30217 1
12 5.96108 8.70454 5.94881 2
13 7.70619 17.1825 6.01216 1
14 2.05356 18.2653 6.00135 1
15 32.6065 23.0614 5.9387 1
16 27.8699 3.68234 7.43856 1
17 15.4807 20.9147 6.94863 1
18 33.8926 26.3203 6.37299 2
19 28.4586 6.1663 8.19722 2
20 32.9954 13.2368 7.65267 2
21 17.7732 6.41559 9.23661 1
22 34.7439 8.22932 9.45283 1
23 32.6523 18.4812 9.12721 2
24 10.7831 21.9683 9.1983 2
25 16.7242 11.9134 10.6064 1
26 12.3121 23.4512 10.7572 1
27 30.6422 26.7792 10.8293 1
28 21.6538 2.57262 12.4316 1
29 33.7807 10.8307 11.6125 2
30 19.8053 16.2299 11.9183 2
31 10.8017 18.2656 11.4478 1
32 0.613335 29.9229 11.8171 1
33 0.955239 3.49844 14.277 1
34 14.1698 23.8599 14.7603 2
35 22.0597 30.7838 14.2851 2
36 34.8397 34.2961 15.0502 1
37 30.4526 9.01715 15.252 2
38 10.6716 14.4081 16.2737 2
39 23.9379 23.5186 15.6304 1
40 15.3261 27.5271 15.1858 1
41 8.39477 9.3712 16.9166 1
42 26.2771 20.4357 16.6438 1
43 32.8704 24.5448 16.3804 2
44 8.1726 6.56064 18.2027 2
45 25.8067 34.3109 17.6226 2
46 31.7612 1.76673 19.7478 2
47 13.8715 8.41629 18.9139 1
48 12.0642 10.5358 18.9848 1
49 22.7266 11.4322 19.5905 2
50 20.6207 28.2625 19.7814 2
51 14.9217 9.92121 21.3404 1
52 3.14654 13.5539 21.1366 1
53 18.8088 22.8968 20.9488 2
54 22.5271 1.53228 21.7737 2
55 15.8038 10.5224 22.1154 1
56 34.8746 22.8215 22.278 2
57 2.96095 27.0228 21.7118 1
58 32.7857 9.11606 23.1822 2
59 11.2125 22.3043 23.2182 1
60 30.2168 22.6205 22.761 2
61 12.7825 10.4146 23.8945 2
62 32.9438 24.9705 24.7673 1
63 26.1712 34.6527 24.3444 2
64 29.9347 34.8706 24.9385 1
65 8.10122 3.54727 25.4221 1
66 34.4862 7.10774 26.2583 2
67 2.64779 8.57587 25.8254 2
68 24.1026 11.3488 25.3016 1
69 4.26735 18.876 26.1453 2
70 27.9821 22.4971 25.4699 1
71 5.09773 24.9891 25.5977 1
72 6.00535 24.3174 25.7934 2
73 11.1501 29.5133 26.3516 2
74 26.7113 30.6338 26.3301 2
75 24.729 13.5187 27.5392 2
76 22.393 0.00794516 27.9344 2
77 19.7733 7.28169 28.09 1
78 27.8873 14.212 28.2527 2
79 31.4227 15.8748 27.6971 2
80 34.3971 23.0795 28.6678 1
81 4.11499 27.8421 28.6331 1
82 32.3136 29.1364 27.8253 2
83 28.8415 0.27612 29.5436 1
84 24.5944 5.00521 29.6981 1
85 5.8457 5.42823 29.1105 1
86 26.2724 10.6579 29.7972 1
87 30.2122 16.0907 29.9488 2
88 7.98311 24.8912 29.0471 2
89 22.4021 12.4193 30.8625 1
90 6.1177 0.969474 31.55 2
91 7.22451 31.3418 31.9941 1
92 8.18903 0.954905 33.0945 1
93 13.733 4.57189 33.2811 2
94 23.3696 11.1901 33.8185 1
95 30.8005 12.8781 32.8764 2
96 29.616 28.9252 33.2717 1
97 8.38846 30.3663 33.3974 2
98 30.6803 33.5328 33.497 2
99 24.4778 16.4596 34.53 1
100 27.2346 25.7879 34.2852 1
ITEM: TIMESTEP
900
ITEM: NUMBER OF ATOMS
100
ITEM: BOX BOUNDS ff ff ff
0.0000000000000000e+00 3.5200000000000003e+01
0.0000000000000000e+00 3.5200000000000003e+01
0.0000000000000000e+00 3.5200000000000003e+01
ITEM: ATOMS id x y z type
1 10.3747 22.7281 1.05342 2
2 32.5039 24.9544 0.0048134 2
3 1.44061 29.9285 0.431061 1
4 34.6509 28.0583 1.477 2
5 10.4988 30.2972 1.28461 2
6 28.1313 31.2962 1.51698 2
7 0.743344 32.5779 1.2731 1
8 5.43784 14.5832 2.7516 2
9 3.91746 16.8137 2.62192 2
10 30.2421 25.6856 4.67382 1
11 6.33123 34.6473 4.30217 1
12 5.96108 8.70454 5.94881 2
13 7.70619 17.1825 6.01216 1
14 2.05356 18.2653 6.00135 1
15 32.6065 23.0614 5.9387 1
16 27.8699 3.68234 7.43856 1
17 15.4807 20.9147 6.94863 1
18 33.8926 26.3203 6.37299 2
19 28.4586 6.1663 8.19722 2
20 32.9954 13.2368 7.65267 2
21 17.7732 6.41559 9.23661 1
22 34.7439 8.22932 9.45283 1
23 32.6523 18.4812 9.12721 2
24 10.7831 21.9683 9.1983 2
25 16.7242 11.9134 10.6064 1
26 12.3121 23.4512 10.7572 1
27 30.6422 26.7792 10.8293 1
28 21.6538 2.57262 12.4316 1
29 33.7807 10.8307 11.6125 2
30 19.8053 16.2299 11.9183 2
31 10.8017 18.2656 11.4478 1
32 0.613335 29.9229 11.8171 1
33 0.955239 3.49844 14.277 1
34 14.1698 23.8599 14.7603 2
35 22.0597 30.7838 14.2851 2
36 34.8397 34.2961 15.0502 1
37 30.4526 9.01715 15.252 2
38 10.6716 14.4081 16.2737 2
39 23.9379 23.5186 15.6304 1
40 15.3261 27.5271 15.1858 1
41 8.39477 9.3712 16.9166 1
42 26.2771 20.4357 16.6438 1
43 32.8704 24.5448 16.3804 2
44 8.1726 6.56064 18.2027 2
45 25.8067 34.3109 17.6226 2
46 31.7612 1.76673 19.7478 2
47 13.8715 8.41629 18.9139 1
48 12.0642 10.5358 18.9848 1
49 22.7266 11.4322 19.5905 2
50 20.6207 28.2625 19.7814 2
51 14.6422 9.73072 21.0949 1
52 3.14654 13.5539 21.1366 1
53 18.8088 22.8968 20.9488 2
54 22.5271 1.53228 21.7737 2
55 16.0834 10.7129 22.3609 1
56 34.8746 22.8215 22.278 2
57 2.96095 27.0228 21.7118 1
58 32.7857 9.11606 23.1822 2
59 11.2125 22.3043 23.2182 1
60 30.2168 22.6205 22.761 2
61 12.7825 10.4146 23.8945 2
62 32.9438 24.9705 24.7673 1