ITEM: TIMESTEP
0
ITEM: NUMBER OF ATOMS
10
ITEM: BOX BOUNDS ff ff ff
0.0000000000000000e+00 3.1305960336348480e+01
0.0000000000000000e+00 3.1305960336348480e+01
0.0000000000000000e+00 3.1305960336348480e+01
ITEM: ATOMS id x y z type
4 23.5901 19.5936 2.76448 1
7 5.53978 3.15384 5.53221 2
3 17.1819 10.0755 5.29699 1
2 15.2549 23.8407 5.58904 1
10 20.9055 11.3238 9.81426 2
9 25.9612 18.5325 13.2672 2
5 4.54242 20.5616 22.9134 1
1 12.0642 24.7713 23.9698 1
8 1.07703 6.87687 29.2008 2
6 29.1388 16.5274 29.2946 2
ITEM: TIMESTEP
10
ITEM: NUMBER OF ATOMS
10
ITEM: BOX BOUNDS ff ff ff
0.0000000000000000e+00 3.1305960336348480e+01
0.0000000000000000e+00 3.1305960336348480e+01
0.0000000000000000e+00 3.1305960336348480e+01
ITEM: ATOMS id x y z type
4 23.3727 19.5571 2.22952 1
7 5.18047 2.89348 4.66579 2
3 17.679 10.3404 6.39298 1
2 15.6344 22.9198 5.48298 1
10 20.6607 11.4961 9.79063 2
9 25.9395 18.9167 13.5401 2
5 3.78489 20.7893 23.8817 1
1 12.8557 25.5116 23.8036 1
8 1.18013 6.41899 28.8457 2
6 28.9456 16.4077 28.9504 2
ITEM: TIMESTEP
20
ITEM: NUMBER OF ATOMS
10
ITEM: BOX BOUNDS ff ff ff
0.0000000000000000e+00 3.1305960336348480e+01
0.0000000000000000e+00 3.1305960336348480e+01
0.0000000000000000e+00 3.1305960336348480e+01
ITEM: ATOMS id x y z type
4 23.1575 19.5185 1.69688 1
7 4.82626 2.64277 3.81278 2
3 18.1762 10.5982 7.4815 1
2 16.0066 22.0023 5.3762 1
10 20.4216 11.6637 9.76172 2
9 25.9232 19.2974 13.8074 2
5 3.03579 21.0165 24.847 1
1 13.6343 26.2438 23.6335 1
8 1.28389 5.96855 28.4908 2
6 28.756 16.2959 28.6128 2
ITEM: TIMESTEP
30
ITEM: NUMBER OF ATOMS
10
ITEM: BOX BOUNDS ff ff ff
0.0000000000000000e+00 3.1305960336348480e+01
0.0000000000000000e+00 3.1305960336348480e+01
0.0000000000000000e+00 3.1305960336348480e+01
ITEM: ATOMS id x y z type
4 22.9433 19.4744 1.16239 1
7 4.47932 2.39822 2.96234 2
3 18.6692 10.8539 8.5583 1
2 16.3697 21.0974 5.26888 1
10 20.1803 11.8353 9.73747 2
9 25.9063 19.6697 14.0676 2
5 2.29711 21.2444 25.8003 1
1 14.4044 26.9693 23.4565 1
8 1.38361 5.5209 28.1384 2
6 28.5695 16.1833 28.2825 2
ITEM: TIMESTEP
40
ITEM: NUMBER OF ATOMS
10
ITEM: BOX BOUNDS ff ff ff
0.0000000000000000e+00 3.1305960336348480e+01
0.0000000000000000e+00 3.1305960336348480e+01
0.0000000000000000e+00 3.1305960336348480e+01
ITEM: ATOMS id x y z type
4 22.7249 19.4211 0.629601 1
7 4.13362 2.15725 2.11883 2
3 19.1574 11.1039 9.62099 1
2 16.7261 20.2028 5.16737 1
10 19.9358 12.0058 9.71582 2
9 25.8876 20.0377 14.329 2
5 1.56171 21.4747 26.7479 1
1 15.1712 27.6877 23.2804 1
8 1.47986 5.07983 27.7937 2
6 28.3807 16.0696 27.9552 2
ITEM: TIMESTEP
50
ITEM: NUMBER OF ATOMS
10
ITEM: BOX BOUNDS ff ff ff
0.0000000000000000e+00 3.1305960336348480e+01
0.0000000000000000e+00 3.1305960336348480e+01
0.0000000000000000e+00 3.1305960336348480e+01
ITEM: ATOMS id x y z type
4 22.5088 19.3674 0.10463 1
7 3.79149 1.92028 1.2828 2
3 19.6402 11.3489 10.6747 1
2 17.0789 19.3226 5.07001 1
10 19.6983 12.1746 9.69427 2
9 25.8708 20.4009 14.5855 2
5 0.833536 21.7027 27.6872 1
1 15.9359 28.4011 23.1041 1
8 1.57575 4.64665 27.4532 2
6 28.1902 15.9595 27.6314 2
ITEM: TIMESTEP
60
ITEM: NUMBER OF ATOMS
10
ITEM: BOX BOUNDS ff ff ff
0.0000000000000000e+00 3.1305960336348480e+01
0.0000000000000000e+00 3.1305960336348480e+01
0.0000000000000000e+00 3.1305960336348480e+01
ITEM: ATOMS id x y z type
4 22.2923 19.3125 0.414587 1
7 3.45332 1.68605 0.453638 2
3 20.1195 11.5968 11.7179 1
2 17.427 18.452 4.96836 1
10 19.4676 12.346 9.67312 2
9 25.8581 20.7611 14.8375 2
5 0.113243 21.9349 28.6151 1
1 16.6956 29.1144 22.9309 1
8 1.66897 4.22051 27.1128 2
6 27.998 15.8564 27.3112 2
ITEM: TIMESTEP
70
ITEM: NUMBER OF ATOMS
10
ITEM: BOX BOUNDS ff ff ff
0.0000000000000000e+00 3.1305960336348480e+01
0.0000000000000000e+00 3.1305960336348480e+01
0.0000000000000000e+00 3.1305960336348480e+01
ITEM: ATOMS id x y z type
4 22.0799 19.2608 0.925473 1
7 3.11291 1.45496 0.36515 2
3 20.5937 11.8431 12.7535 1
2 17.7738 17.5893 4.86112 1
10 19.2463 12.5172 9.6542 2
9 25.8503 21.12 15.0834 2
5 0.598719 22.1647 29.5362 1
1 17.4457 29.825 22.762 1
8 1.76433 3.79859 26.7767 2
6 27.8108 15.7543 26.9909 2
ITEM: TIMESTEP
80
ITEM: NUMBER OF ATOMS
10
ITEM: BOX BOUNDS ff ff ff
0.0000000000000000e+00 3.1305960336348480e+01
0.0000000000000000e+00 3.1305960336348480e+01
0.0000000000000000e+00 3.1305960336348480e+01
ITEM: ATOMS id x y z type
4 21.8666 19.2104 1.43612 1
7 2.7727 1.23099 1.17338 2
3 21.0609 12.0828 13.7738 1
2 18.1184 16.7376 4.75347 1
10 19.0223 12.6925 9.63821 2
9 25.8408 21.4799 15.3244 2
5 1.30271 22.396 30.4521 1
1 18.19 30.5267 22.5984 1
8 1.85502 3.38075 26.4451 2
6 27.6246 15.6553 26.6761 2
ITEM: TIMESTEP
90
ITEM: NUMBER OF ATOMS
10
ITEM: BOX BOUNDS ff ff ff
0.0000000000000000e+00 3.1305960336348480e+01
0.0000000000000000e+00 3.1305960336348480e+01
0.0000000000000000e+00 3.1305960336348480e+01
ITEM: ATOMS id x y z type
4 21.6527 19.1598 1.94603 1
7 2.43417 1.01699 1.97109 2
3 21.5205 12.3166 14.7898 1
2 18.4592 15.8943 4.6431 1
10 18.8048 12.8683 9.62877 2
9 25.8261 21.8337 15.5684 2
5 2.00308 22.634 31.2567 1
1 18.9292 31.2224 22.4354 1
8 1.94538 2.96228 26.1201 2
6 27.4426 15.5544 26.3667 2
ITEM: TIMESTEP
100
ITEM: NUMBER OF ATOMS
10
ITEM: BOX BOUNDS ff ff ff
0.0000000000000000e+00 3.1305960336348480e+01
0.0000000000000000e+00 3.1305960336348480e+01
0.0000000000000000e+00 3.1305960336348480e+01
ITEM: ATOMS id x y z type
4 21.4411 19.1122 2.45517 1
7 2.09903 0.804287 2.76339 2
3 21.976 12.5475 15.8032 1
2 18.7927 15.0607 4.53364 1
10 18.5895 13.0446 9.62076 2
9 25.8103 22.1856 15.8055 2
5 2.70037 22.8759 30.3635 1
1 19.6654 30.7 22.2785 1
8 2.04195 2.55171 25.7991 2
6 27.2711 15.4539 26.0531 2
ITEM: TIMESTEP
110
ITEM: NUMBER OF ATOMS
10
ITEM: BOX BOUNDS ff ff ff
0.0000000000000000e+00 3.1305960336348480e+01
0.0000000000000000e+00 3.1305960336348480e+01
0.0000000000000000e+00 3.1305960336348480e+01
ITEM: ATOMS id x y z type
4 21.2322 19.0661 2.95598 1
7 1.7637 0.586436 3.55129 2
3 22.4236 12.7728 16.8059 1
2 19.1234 14.2367 4.42618 1
10 18.3744 13.22 9.60969 2
9 25.7975 22.5389 16.0371 2
5 3.39355 23.1184 29.4769 1
1 20.4019 30.0213 22.1248 1
8 2.14376 2.14905 25.4794 2
6 27.1017 15.3531 25.7424 2
ITEM: TIMESTEP
120
ITEM: NUMBER OF ATOMS
10
ITEM: BOX BOUNDS ff ff ff
0.0000000000000000e+00 3.1305960336348480e+01
0.0000000000000000e+00 3.1305960336348480e+01
0.0000000000000000e+00 3.1305960336348480e+01
ITEM: ATOMS id x y z type
4 21.0236 19.0135 3.4511 1
7 1.43245 0.370327 4.33243 2
3 22.8632 12.9876 17.7935 1
2 19.4515 13.4209 4.31736 1
10 18.1559 13.3986 9.60032 2
9 25.7788 22.888 16.2683 2
5 4.07676 23.3565 28.5989 1
1 21.1326 29.3472 21.9712 1
8 2.24327 1.7441 25.1613 2
6 26.9297 15.2482 25.4355 2
ITEM: TIMESTEP
130
ITEM: NUMBER OF ATOMS
10
ITEM: BOX BOUNDS ff ff ff
0.0000000000000000e+00 3.1305960336348480e+01
0.0000000000000000e+00 3.1305960336348480e+01
0.0000000000000000e+00 3.1305960336348480e+01
ITEM: ATOMS id x y z type
4 20.8241 18.9572 3.94805 1
7 1.10262 0.159115 5.10325 2
3 23.296 13.197 18.7698 1
2 19.7749 12.6162 4.20828 1
10 17.9378 13.5732 9.59069 2
9 25.756 23.2337 16.4964 2
5 4.75505 23.5936 27.7317 1
1 21.862 28.6849 21.8178 1
8 2.34188 1.34138 24.8433 2
6 26.7577 15.1452 25.1321 2
ITEM: TIMESTEP
140
ITEM: NUMBER OF ATOMS
10
ITEM: BOX BOUNDS ff ff ff
0.0000000000000000e+00 3.1305960336348480e+01
0.0000000000000000e+00 3.1305960336348480e+01
0.0000000000000000e+00 3.1305960336348480e+01
ITEM: ATOMS id x y z type
4 20.6218 18.9014 4.44322 1
7 0.776014 0.0499682 5.86708 2
3 23.729 13.3993 19.7326 1
2 20.0925 11.8161 4.10349 1
10 17.7132 13.7414 9.58148 2
9 25.7343 23.582 16.7238 2
5 5.42683 23.8331 26.8771 1
1 22.5833 28.0292 21.6605 1
8 2.44831 0.941326 24.5283 2
6 26.5858 15.0475 24.8295 2
ITEM: TIMESTEP
150
ITEM: NUMBER OF ATOMS
10
ITEM: BOX BOUNDS ff ff ff
0.0000000000000000e+00 3.1305960336348480e+01
0.0000000000000000e+00 3.1305960336348480e+01
0.0000000000000000e+00 3.1305960336348480e+01
ITEM: ATOMS id x y z type
4 20.4251 18.8386 4.93117 1
7 0.452734 0.250294 6.62177 2
3 24.1577 13.5992 20.6854 1
2 20.4058 11.0216 4.00362 1
10 17.4879 13.9112 9.57182 2
9 25.7134 23.9295 16.9538 2
5 6.08915 24.0769 26.0361 1
1 23.2994 27.3805 21.5025 1
8 2.55733 0.539894 24.2198 2
6 26.4218 14.9566 24.5272 2
ITEM: TIMESTEP
160
ITEM: NUMBER OF ATOMS
10
ITEM: BOX BOUNDS ff ff ff
0.0000000000000000e+00 3.1305960336348480e+01
0.0000000000000000e+00 3.1305960336348480e+01
0.0000000000000000e+00 3.1305960336348480e+01
ITEM: ATOMS id x y z type
4 20.2333 18.7761 5.4173 1
7 0.134324 0.447312 7.3667 2
3 24.5839 13.8016 21.6293 1
2 20.7186 10.2356 3.90776 1
10 17.26 14.0845 9.56684 2
9 25.6959 24.2737 17.1857 2
5 6.74076 24.321 25.2039 1
1 24.014 26.7395 21.3467 1
8 2.65839 0.139591 23.9078 2
6 26.2664 14.8693 24.225 2
ITEM: TIMESTEP
170
ITEM: NUMBER OF ATOMS
10
ITEM: BOX BOUNDS ff ff ff
0.0000000000000000e+00 3.1305960336348480e+01
0.0000000000000000e+00 3.1305960336348480e+01
0.0000000000000000e+00 3.1305960336348480e+01
ITEM: ATOMS id x y z type
4 20.0473 18.7135 5.90248 1
7 0.182712 0.644376 8.10338 2
3 25.0084 14.0031 22.5651 1
2 21.0346 9.46237 3.81285 1
10 17.0309 14.2599 9.56509 2
9 25.6756 24.6213 17.4112 2
5 7.38845 24.5629 24.3802 1
1 24.7202 26.1059 21.1915 1
8 2.75979 0.252156 23.5983 2
6 26.1149 14.7858 23.9257 2
ITEM: TIMESTEP
180
ITEM: NUMBER OF ATOMS
10
ITEM: BOX BOUNDS ff ff ff
0.0000000000000000e+00 3.1305960336348480e+01
0.0000000000000000e+00 3.1305960336348480e+01
0.0000000000000000e+00 3.1305960336348480e+01
ITEM: ATOMS id x y z type
4 19.8595 18.6527 6.3812 1
7 0.493964 0.838339 8.83513 2
3 25.4246 14.2082 23.4926 1
2 21.3502 8.69663 3.72128 1
10 16.8066 14.4364 9.56244 2
9 25.6528 24.9672 17.6319 2
5 8.03237 24.8041 23.5597 1
1 25.4201 25.4802 21.0382 1
8 2.85915 0.638681 23.2934 2
6 25.9679 14.7026 23.628 2
ITEM: TIMESTEP
190
ITEM: NUMBER OF ATOMS
10
ITEM: BOX BOUNDS ff ff ff
0.0000000000000000e+00 3.1305960336348480e+01
0.0000000000000000e+00 3.1305960336348480e+01
0.0000000000000000e+00 3.1305960336348480e+01
ITEM: ATOMS id x y z type
4 19.675 18.6002 6.85179 1
7 0.807969 1.02878 9.56439 2
3 25.8309 14.4175 24.4042 1
2 21.6667 7.94284 3.62942 1
10 16.5829 14.6144 9.56086 2
9 25.6301 25.3102 17.8465 2
5 8.66947 25.0434 22.746 1
1 26.1173 24.8553 20.8822 1
8 2.95102 1.02475 22.9945 2
6 25.8205 14.6187 23.3328 2
ITEM: TIMESTEP
200
ITEM: NUMBER OF ATOMS
10
ITEM: BOX BOUNDS ff ff ff
0.0000000000000000e+00 3.1305960336348480e+01
0.0000000000000000e+00 3.1305960336348480e+01
0.0000000000000000e+00 3.1305960336348480e+01
ITEM: ATOMS id x y z type
4 19.4938 18.5492 7.3192 1
7 1.12081 1.21721 10.2906 2
3 26.2346 14.6292 25.3093 1
2 21.9838 7.20175 3.53511 1
10 16.3643 14.7922 9.55767 2
9 25.609 25.6497 18.0527 2
5 9.30865 25.2835 21.9396 1
1 26.8124 24.2324 20.7262 1
8 3.04188 1.40854 22.6976 2
6 25.6724 14.5337 23.037 2
ITEM: TIMESTEP
210
ITEM: NUMBER OF ATOMS
10
ITEM: BOX BOUNDS ff ff ff
0.0000000000000000e+00 3.1305960336348480e+01
0.0000000000000000e+00 3.1305960336348480e+01
0.0000000000000000e+00 3.1305960336348480e+01
ITEM: ATOMS id x y z type
4 19.318 18.4878 7.78206 1
7 1.42982 1.40012 11.0063 2
3 26.6343 14.8391 26.2102 1
2 22.2975 6.46943 3.44397 1
10 16.1487 14.97 9.55408 2
9 25.5827 25.9843 18.2497 2
5 9.94816 25.5254 21.1396 1
1 27.4979 23.6177 20.5785 1
8 3.13308 1.78777 22.4018 2
6 25.5244 14.4436 22.7467 2
ITEM: TIMESTEP
220
ITEM: NUMBER OF ATOMS
10
ITEM: BOX BOUNDS ff ff ff
0.0000000000000000e+00 3.1305960336348480e+01
0.0000000000000000e+00 3.1305960336348480e+01
0.0000000000000000e+00 3.1305960336348480e+01
ITEM: ATOMS id x y z type
4 19.1428 18.4203 8.24409 1
7 1.73705 1.57856 11.7168 2
3 27.0319 15.045 27.0971 1
2 22.6037 5.7476 3.35489 1
10 15.9293 15.1454 9.55181 2
9 25.5562 26.3112 18.4434 2
5 10.5805 25.7653 20.3449 1
1 28.1723 23.0116 20.4318 1
8 3.22537 2.16051 22.1062 2
6 25.3846 14.352 22.4671 2
ITEM: TIMESTEP
230
ITEM: NUMBER OF ATOMS
10
ITEM: BOX BOUNDS ff ff ff
0.0000000000000000e+00 3.1305960336348480e+01
0.0000000000000000e+00 3.1305960336348480e+01
0.0000000000000000e+00 3.1305960336348480e+01
ITEM: ATOMS id x y z type
4 18.9779 18.3556 8.70611 1
7 2.04307 1.7536 12.4266 2
3 27.4258 15.2474 27.9714 1
2 22.9071 5.03601 3.26288 1
10 15.708 15.3198 9.54517 2
9 25.531 26.6248 18.6422 2
5 11.21 26.0079 19.556 1
1 28.8379 22.4119 20.2852 1
8 3.32057 2.53504 21.8142 2
6 25.2429 14.2619 22.1934 2
ITEM: TIMESTEP
240
ITEM: NUMBER OF ATOMS
10
ITEM: BOX BOUNDS ff ff ff
0.0000000000000000e+00 3.1305960336348480e+01
0.0000000000000000e+00 3.1305960336348480e+01
0.0000000000000000e+00 3.1305960336348480e+01
ITEM: ATOMS id x y z type
4 18.8173 18.2936 9.16494 1
7 2.34159 1.92669 13.131 2
3 27.8131 15.4472 28.8431 1
2 23.2089 4.33268 3.16943 1
10 15.4838 15.4922 9.53923 2
9 25.5024 26.9299 18.8403 2
5 11.832 26.2477 18.7742 1
1 29.4927 21.82 20.139 1
8 3.41291 2.90729 21.5266 2
6 25.1061 14.1792 21.9257 2
ITEM: TIMESTEP
250
ITEM: NUMBER OF ATOMS
10
ITEM: BOX BOUNDS ff ff ff
0.0000000000000000e+00 3.1305960336348480e+01
0.0000000000000000e+00 3.1305960336348480e+01
0.0000000000000000e+00 3.1305960336348480e+01
ITEM: ATOMS id x y z type
4 18.6558 18.2295 9.62067 1
7 2.63662 2.10211 13.826 2
3 28.1922 15.6496 29.7083 1
2 23.51 3.63928 3.08156 1
10 15.2572 15.6603 9.54208 2
9 25.4734 27.2346 19.0345 2
5 12.4425 26.4791 17.999 1
1 30.1381 21.2348 19.9983 1
8 3.50593 3.27157 21.2436 2
6 24.9728 14.0991 21.6632 2
ITEM: TIMESTEP
260
ITEM: NUMBER OF ATOMS
10
ITEM: BOX BOUNDS ff ff ff
0.0000000000000000e+00 3.1305960336348480e+01
0.0000000000000000e+00 3.1305960336348480e+01
0.0000000000000000e+00 3.1305960336348480e+01
ITEM: ATOMS id x y z type
4 18.4932 18.1586 10.0746 1
7 2.92463 2.27635 14.5135 2
3 28.5673 15.8524 30.5714 1
2 23.8082 2.953 2.99556 1
10 15.0302 15.8219 9.55207 2
9 25.44 27.5377 19.2271 2
5 13.0445 26.7042 17.2272 1
1 30.777 20.6558 19.8622 1
8 3.60427 3.62722 20.967 2
6 24.84 14.0242 21.4034 2
ITEM: TIMESTEP
270
ITEM: NUMBER OF ATOMS
10
ITEM: BOX BOUNDS ff ff ff
0.0000000000000000e+00 3.1305960336348480e+01
0.0000000000000000e+00 3.1305960336348480e+01
0.0000000000000000e+00 3.1305960336348480e+01
ITEM: ATOMS id x y z type
4 18.3303 18.086 10.5243 1
7 3.20989 2.44203 15.1952 2
3 28.9334 16.0456 31.1831 1
2 24.1048 2.279 2.90954 1
10 14.8036 15.9843 9.56398 2
9 25.4098 27.839 19.4167 2
5 13.6448 26.9191 16.4652 1
1 31.2068 20.0795 19.7312 1
8 3.7002 3.97896 20.693 2
6 24.7092 13.9583 21.1477 2
ITEM: TIMESTEP
280
ITEM: NUMBER OF ATOMS
10
ITEM: BOX BOUNDS ff ff ff
0.0000000000000000e+00 3.1305960336348480e+01
0.0000000000000000e+00 3.1305960336348480e+01
0.0000000000000000e+00 3.1305960336348480e+01
ITEM: ATOMS id x y z type
4 18.1651 18.0125 10.9775 1
7 3.49073 2.60296 15.8658 2
3 29.295 16.2321 30.3365 1
2 24.4075 1.61616 2.82445 1
10 14.577 16.1491 9.57407 2
9 25.3761 28.1371 19.6022 2
5 14.239 27.1326 15.7071 1
1 30.5915 19.5085 19.5999 1
8 3.79377 4.32501 20.4165 2
6 24.5818 13.8968 20.8936 2
ITEM: TIMESTEP
290
ITEM: NUMBER OF ATOMS
10
ITEM: BOX BOUNDS ff ff ff
0.0000000000000000e+00 3.1305960336348480e+01
0.0000000000000000e+00 3.1305960336348480e+01
0.0000000000000000e+00 3.1305960336348480e+01
ITEM: ATOMS id x y z type
4 18.0049 17.9378 11.4234 1
7 3.76416 2.76358 16.5324 2
3 29.6543 16.4212 29.4893 1
2 24.707 0.959501 2.74313 1
10 14.3508 16.3118 9.5862 2
9 25.3366 28.4297 19.7865 2
5 14.824 27.3453 14.9522 1
1 29.9856 18.9415 19.4676 1
8 3.88713 4.66517 20.1406 2
6 24.4536 13.8324 20.6433 2
ITEM: TIMESTEP
300
ITEM: NUMBER OF ATOMS
10
ITEM: BOX BOUNDS ff ff ff
0.0000000000000000e+00 3.1305960336348480e+01
0.0000000000000000e+00 3.1305960336348480e+01
0.0000000000000000e+00 3.1305960336348480e+01
ITEM: ATOMS id x y z type
4 17.8436 17.8644 11.8613 1
7 4.03664 2.92433 17.1955 2
3 30.0046 16.6095 28.6501 1
2 24.9998 0.313943 2.66828 1
10 14.1262 16.4722 9.60158 2
9 25.2986 28.7247 19.9741 2
5 15.4013 27.5582 14.2017 1
1 29.3833 18.3798 19.3375 1
8 3.98241 5.00732 19.8682 2
6 24.3302 13.7673 20.3941 2
ITEM: TIMESTEP
310
ITEM: NUMBER OF ATOMS
10
ITEM: BOX BOUNDS ff ff ff
0.0000000000000000e+00 3.1305960336348480e+01
0.0000000000000000e+00 3.1305960336348480e+01
0.0000000000000000e+00 3.1305960336348480e+01
ITEM: ATOMS id x y z type
4 17.6845 17.7896 12.3018 1
7 4.30845 3.08553 17.8567 2
3 30.3473 16.7933 27.813 1
2 25.2851 0.327065 2.59706 1
10 13.9065 16.6366 9.61594 2
9 25.2638 29.0247 20.1609 2
5 15.9703 27.7687 13.4617 1
1 28.7872 17.8236 19.2123 1
8 4.0777 5.34876 19.5981 2
6 24.2108 13.7013 20.1466 2
ITEM: TIMESTEP
320
ITEM: NUMBER OF ATOMS
10
ITEM: BOX BOUNDS ff ff ff
0.0000000000000000e+00 3.1305960336348480e+01
0.0000000000000000e+00 3.1305960336348480e+01
0.0000000000000000e+00 3.1305960336348480e+01
ITEM: ATOMS id x y z type
4 17.5264 17.7206 12.738 1
7 4.57893 3.24253 18.5071 2
3 30.6822 16.9749 26.9786 1
2 25.5619 0.964733 2.52343 1
10 13.691 16.802 9.63064 2
9 25.2311 29.3224 20.3458 2
5 16.5395 27.9764 12.7282 1
1 28.1929 17.2721 19.0856 1
8 4.17585 5.69268 19.3371 2
6 24.0979 13.6325 19.9023 2
ITEM: TIMESTEP
330
ITEM: NUMBER OF ATOMS
10
ITEM: BOX BOUNDS ff ff ff
0.0000000000000000e+00 3.1305960336348480e+01
0.0000000000000000e+00 3.1305960336348480e+01
0.0000000000000000e+00 3.1305960336348480e+01
ITEM: ATOMS id x y z type
4 17.3671 17.6579 13.1681 1
7 4.8491 3.3969 19.1522 2
3 31.0135 17.1548 26.1522 1
2 25.8329 1.59324 2.44781 1
10 13.4699 16.9614 9.64199 2
9 25.1959 29.6189 20.5292 2
5 17.1092 28.1865 11.9956 1
1 27.6047 16.7198 18.9569 1
8 4.27826 6.03403 19.0852 2
6 23.9903 13.5619 19.6584 2
ITEM: TIMESTEP
340
ITEM: NUMBER OF ATOMS
10
ITEM: BOX BOUNDS ff ff ff
0.0000000000000000e+00 3.1305960336348480e+01
0.0000000000000000e+00 3.1305960336348480e+01
0.0000000000000000e+00 3.1305960336348480e+01
ITEM: ATOMS id x y z type
4 17.2087 17.5956 13.5975 1
7 5.11908 3.54886 19.7982 2
3 31.2708 17.3363 25.3351 1
2 26.0993 2.21346 2.37026 1
10 13.2549 17.1221 9.6565 2
9 25.1626 29.9091 20.7083 2
5 17.6746 28.3947 11.2673 1
1 27.0241 16.1723 18.828 1
8 4.38218 6.37134 18.8415 2
6 23.8826 13.4862 19.4151 2
ITEM: TIMESTEP
350
ITEM: NUMBER OF ATOMS
10
ITEM: BOX BOUNDS ff ff ff
0.0000000000000000e+00 3.1305960336348480e+01
0.0000000000000000e+00 3.1305960336348480e+01
0.0000000000000000e+00 3.1305960336348480e+01
ITEM: ATOMS id x y z type
4 17.0475 17.5349 14.0133 1
7 5.38291 3.69179 20.433 2
3 30.9426 17.519 24.5334 1
2 26.3602 2.83031 2.29631 1
10 13.0439 17.2779 9.67299 2
9 25.1325 30.1955 20.8893 2
5 18.2347 28.6023 10.5413 1
1 26.4554 15.6305 18.7033 1
8 4.48382 6.70108 18.6012 2
6 23.7729 13.416 19.1796 2
ITEM: TIMESTEP
360
ITEM: NUMBER OF ATOMS
10
ITEM: BOX BOUNDS ff ff ff
0.0000000000000000e+00 3.1305960336348480e+01
0.0000000000000000e+00 3.1305960336348480e+01
0.0000000000000000e+00 3.1305960336348480e+01
ITEM: ATOMS id x y z type
4 16.8881 17.4753 14.4208 1
7 5.63944 3.82851 21.0615 2
3 30.6226 17.7003 23.7479 1
2 26.6174 3.44781 2.23128 1
10 12.8272 17.4345 9.69092 2
9 25.1017 30.4821 21.0767 2
5 18.7886 28.8067 9.82352 1
1 25.8893 15.0984 18.5749 1
8 4.58805 7.02532 18.3597 2
6 23.6634 13.3456 18.9423 2
ITEM: TIMESTEP
370
ITEM: NUMBER OF ATOMS
10
ITEM: BOX BOUNDS ff ff ff
0.0000000000000000e+00 3.1305960336348480e+01
0.0000000000000000e+00 3.1305960336348480e+01
0.0000000000000000e+00 3.1305960336348480e+01
ITEM: ATOMS id x y z type
4 16.7337 17.4212 14.8241 1
7 5.89607 3.9621 21.6858 2
3 30.3073 17.8721 22.9742 1
2 26.8692 4.06048 2.17128 1
10 12.6126 17.593 9.71155 2
9 25.0707 30.7633 21.2662 2
5 19.3334 29.0079 9.10973 1
1 25.3283 14.5745 18.4368 1
8 4.69138 7.34564 18.1222 2
6 23.5529 13.2701 18.7 2
ITEM: TIMESTEP
380
ITEM: NUMBER OF ATOMS
10
ITEM: BOX BOUNDS ff ff ff
0.0000000000000000e+00 3.1305960336348480e+01
0.0000000000000000e+00 3.1305960336348480e+01
0.0000000000000000e+00 3.1305960336348480e+01
ITEM: ATOMS id x y z type
4 16.5831 17.3696 15.2285 1
7 6.15236 4.09979 22.2996 2
3 29.9919 18.0403 22.2107 1
2 27.1145 4.67043 2.11275 1
10 12.3987 17.7522 9.73561 2
9 25.0335 31.0385 21.4603 2
5 19.8755 29.2098 8.40601 1
1 24.7767 14.0596 18.2929 1
8 4.78861 7.6622 17.8939 2
6 23.442 13.188 18.4602 2
ITEM: TIMESTEP
390
ITEM: NUMBER OF ATOMS
10
ITEM: BOX BOUNDS ff ff ff
0.0000000000000000e+00 3.1305960336348480e+01
0.0000000000000000e+00 3.1305960336348480e+01
0.0000000000000000e+00 3.1305960336348480e+01
ITEM: ATOMS id x y z type
4 16.4337 17.3153 15.6317 1
7 6.4088 4.2355 22.9079 2
3 29.6724 18.2086 21.45 1
2 27.3557 5.2741 2.04778 1
10 12.1859 17.9074 9.75291 2
9 24.9993 31.3004 21.6589 2
5 20.4166 29.4004 7.70644 1
1 24.23 13.5492 18.1478 1
8 4.88092 7.98045 17.6727 2
6 23.3333 13.1068 18.2167 2
ITEM: TIMESTEP
400
ITEM: NUMBER OF ATOMS
10
ITEM: BOX BOUNDS ff ff ff
0.0000000000000000e+00 3.1305960336348480e+01
0.0000000000000000e+00 3.1305960336348480e+01
0.0000000000000000e+00 3.1305960336348480e+01
ITEM: ATOMS id x y z type
4 16.2828 17.2607 16.0311 1
7 6.66051 4.37294 23.5161 2
3 29.3542 18.3756 20.6967 1
2 27.5937 5.86731 1.97824 1
10 11.9733 18.0573 9.76283 2
9 24.9616 31.0278 21.8589 2
5 20.955 29.5871 7.01414 1
1 23.6876 13.0388 18.0069 1
8 4.96739 8.2969 17.4471 2
6 23.2238 13.0261 17.9754 2
ITEM: TIMESTEP
410
ITEM: NUMBER OF ATOMS
10
ITEM: BOX BOUNDS ff ff ff
0.0000000000000000e+00 3.1305960336348480e+01
0.0000000000000000e+00 3.1305960336348480e+01
0.0000000000000000e+00 3.1305960336348480e+01
ITEM: ATOMS id x y z type
4 16.1322 17.2158 16.4284 1
7 6.90816 4.51621 24.1142 2
3 29.0365 18.5432 19.9525 1
2 27.8244 6.45969 1.90699 1
10 11.7649 18.2084 9.77151 2
9 24.9272 30.7581 22.0593 2
5 21.4903 29.7683 6.33392 1
1 23.1486 12.5332 17.8724 1
8 5.04979 8.61137 17.2218 2
6 23.117 12.95 17.7381 2
ITEM: TIMESTEP
420
ITEM: NUMBER OF ATOMS
10
ITEM: BOX BOUNDS ff ff ff
0.0000000000000000e+00 3.1305960336348480e+01
0.0000000000000000e+00 3.1305960336348480e+01
0.0000000000000000e+00 3.1305960336348480e+01
ITEM: ATOMS id x y z type
4 15.9868 17.1765 16.8186 1
7 7.14933 4.66227 24.706 2
3 28.7268 18.7072 19.215 1
2 28.0477 7.04595 1.83438 1
10 11.5654 18.3615 9.77826 2
9 24.9016 30.4934 22.2546 2
5 22.0165 29.9505 5.66365 1
1 22.6029 11.9867 17.749 1
8 5.12852 8.91716 17.0014 2
6 23.024 12.9342 17.491 2
ITEM: TIMESTEP
430
ITEM: NUMBER OF ATOMS
10
ITEM: BOX BOUNDS ff ff ff
0.0000000000000000e+00 3.1305960336348480e+01
0.0000000000000000e+00 3.1305960336348480e+01
0.0000000000000000e+00 3.1305960336348480e+01
ITEM: ATOMS id x y z type
4 15.8399 17.1386 17.2053 1
7 7.38734 4.80492 25.2948 2
3 28.4193 18.8719 18.4849 1
2 28.2718 7.62643 1.76759 1
10 11.3684 18.5199 9.78039 2
9 24.8768 30.2305 22.4501 2
5 22.5354 30.129 5.00213 1
1 22.0574 11.4402 17.6301 1
8 5.20555 9.21872 16.7851 2
6 22.93 12.9265 17.2503 2
ITEM: TIMESTEP
440
ITEM: NUMBER OF ATOMS
10
ITEM: BOX BOUNDS ff ff ff
0.0000000000000000e+00 3.1305960336348480e+01
0.0000000000000000e+00 3.1305960336348480e+01
0.0000000000000000e+00 3.1305960336348480e+01
ITEM: ATOMS id x y z type
4 15.6892 17.1034 17.5849 1
7 7.62676 4.94521 25.8739 2
3 28.1065 19.0385 17.7639 1
2 28.4935 8.19906 1.70888 1
10 11.175 18.6793 9.77789 2
9 24.8498 29.9642 22.6479 2
5 23.0497 30.3017 4.34516 1
1 21.5786 10.9969 17.4895 1
8 5.28026 9.51551 16.571 2
6 22.7753 12.8149 17.0351 2
ITEM: TIMESTEP
450
ITEM: NUMBER OF ATOMS
10
ITEM: BOX BOUNDS ff ff ff
0.0000000000000000e+00 3.1305960336348480e+01
0.0000000000000000e+00 3.1305960336348480e+01
0.0000000000000000e+00 3.1305960336348480e+01
ITEM: ATOMS id x y z type
4 15.5321 17.0663 17.9555 1
7 7.86514 5.08573 26.4413 2
3 27.793 19.2037 17.0511 1
2 28.7098 8.76313 1.64707 1
10 10.9831 18.8399 9.77108 2
9 24.8177 29.6973 22.8423 2
5 23.5616 30.4729 3.69371 1
1 21.2163 10.719 17.3095 1
8 5.35543 9.80896 16.3571 2
6 22.509 12.5321 16.8683 2
ITEM: TIMESTEP
460
ITEM: NUMBER OF ATOMS
10
ITEM: BOX BOUNDS ff ff ff
0.0000000000000000e+00 3.1305960336348480e+01
0.0000000000000000e+00 3.1305960336348480e+01
0.0000000000000000e+00 3.1305960336348480e+01
ITEM: ATOMS id x y z type
4 15.3717 17.0311 18.3207 1
7 8.10663 5.23101 27.0003 2
3 27.4826 19.3662 16.3442 1
2 28.9254 9.31891 1.58112 1
10 10.7895 18.997 9.76104 2
9 24.7898 29.4327 23.0347 2
5 24.0689 30.6421 3.04386 1
1 20.9742 10.6122 17.0907 1
8 5.43542 10.1029 16.1407 2
6 22.122 12.0822 16.7513 2
ITEM: TIMESTEP
470
ITEM: NUMBER OF ATOMS
10
ITEM: BOX BOUNDS ff ff ff
0.0000000000000000e+00 3.1305960336348480e+01
0.0000000000000000e+00 3.1305960336348480e+01
0.0000000000000000e+00 3.1305960336348480e+01
ITEM: ATOMS id x y z type
4 15.2129 16.9978 18.6809 1
7 8.34832 5.37964 27.5585 2
3 27.1769 19.5297 15.6462 1
2 29.1418 9.866 1.51107 1
10 10.5995 19.1541 9.74609 2
9 24.7636 29.1652 23.2259 2
5 24.5718 30.8105 2.39443 1
1 20.8174 10.6098 16.8501 1
8 5.51637 10.393 15.9255 2
6 21.6498 11.5204 16.6594 2
ITEM: TIMESTEP
480
ITEM: NUMBER OF ATOMS
10
ITEM: BOX BOUNDS ff ff ff
0.0000000000000000e+00 3.1305960336348480e+01
0.0000000000000000e+00 3.1305960336348480e+01
0.0000000000000000e+00 3.1305960336348480e+01
ITEM: ATOMS id x y z type
4 15.0549 16.9641 19.0411 1
7 8.59003 5.53278 28.1113 2
3 26.8768 19.6897 14.9565 1
2 29.3544 10.4043 1.44075 1
10 10.4058 19.3075 9.72684 2
9 24.7385 28.8949 23.4143 2
5 25.0712 30.9797 1.74456 1
1 20.6793 10.6218 16.603 1
8 5.59715 10.6872 15.7165 2
6 21.1688 10.9399 16.567 2
ITEM: TIMESTEP
490
ITEM: NUMBER OF ATOMS
10
ITEM: BOX BOUNDS ff ff ff
0.0000000000000000e+00 3.1305960336348480e+01
0.0000000000000000e+00 3.1305960336348480e+01
0.0000000000000000e+00 3.1305960336348480e+01
ITEM: ATOMS id x y z type
4 14.8974 16.9279 19.4012 1
7 8.83158 5.68596 28.6603 2
3 26.581 19.8458 14.2763 1
2 29.5651 10.9421 1.37136 1
10 10.2108 19.4557 9.70912 2
9 24.7134 28.6261 23.6014 2
5 25.5605 31.1444 1.09604 1
1 20.4699 10.6046 16.3535 1
8 5.66614 10.9798 15.5113 2
6 20.7712 10.3963 16.4771 2
ITEM: TIMESTEP
500
ITEM: NUMBER OF ATOMS
10
ITEM: BOX BOUNDS ff ff ff
0.0000000000000000e+00 3.1305960336348480e+01
0.0000000000000000e+00 3.1305960336348480e+01
0.0000000000000000e+00 3.1305960336348480e+01
ITEM: ATOMS id x y z type
4 14.7454 16.8929 19.7608 1
7 9.07236 5.83654 29.2077 2
3 26.286 20.001 13.6052 1
2 29.7701 11.4734 1.30924 1
10 10.0183 19.6063 9.69402 2
9 24.6882 28.3598 23.782 2
5 26.048 31.3037 0.443345 1
1 20.1718 10.6301 16.0701 1
8 5.72843 11.265 15.3063 2
6 20.4711 9.80277 16.4229 2
ITEM: TIMESTEP
510
ITEM: NUMBER OF ATOMS
10
ITEM: BOX BOUNDS ff ff ff
0.0000000000000000e+00 3.1305960336348480e+01
0.0000000000000000e+00 3.1305960336348480e+01
0.0000000000000000e+00 3.1305960336348480e+01
ITEM: ATOMS id x y z type
4 14.5983 16.856 20.1195 1
7 9.30457 5.98268 29.7542 2
3 25.9964 20.1559 12.9471 1
2 29.9744 11.9954 1.24939 1
10 9.82582 19.752 9.68106 2
9 24.6642 28.0953 23.9551 2
5 26.5299 31.1361 0.207398 1
1 19.8669 10.6769 15.7823 1
8 5.79461 11.5423 15.1097 2
6 20.1853 9.19366 16.3822 2
ITEM: TIMESTEP
520
ITEM: NUMBER OF ATOMS
10
ITEM: BOX BOUNDS ff ff ff
0.0000000000000000e+00 3.1305960336348480e+01
0.0000000000000000e+00 3.1305960336348480e+01
0.0000000000000000e+00 3.1305960336348480e+01
ITEM: ATOMS id x y z type
4 14.4581 16.8199 20.4788 1
7 9.52812 6.13081 30.2925 2
3 25.7132 20.3145 12.2999 1
2 30.1775 12.5086 1.19061 1
10 9.63044 19.8929 9.66771 2
9 24.6368 27.8447 24.1255 2
5 27.0088 30.9681 0.849804 1
1 19.5854 10.6369 15.5324 1
8 5.8654 11.817 14.915 2
6 19.8874 8.67734 16.3124 2
ITEM: TIMESTEP
530
ITEM: NUMBER OF ATOMS
10
ITEM: BOX BOUNDS ff ff ff
0.0000000000000000e+00 3.1305960336348480e+01
0.0000000000000000e+00 3.1305960336348480e+01
0.0000000000000000e+00 3.1305960336348480e+01
ITEM: ATOMS id x y z type
4 14.3181 16.7828 20.8336 1
7 9.74553 6.27852 30.8228 2
3 25.4298 20.4711 11.6642 1
2 30.3811 13.0104 1.12973 1
10 9.44159 20.0323 9.65111 2
9 24.6144 27.5959 24.295 2
5 27.4842 30.8051 1.4846 1
1 19.3349 10.426 15.3534 1
8 5.94028 12.0868 14.7282 2
6 19.5723 8.34252 16.1776 2
ITEM: TIMESTEP
540
ITEM: NUMBER OF ATOMS
10
ITEM: BOX BOUNDS ff ff ff
0.0000000000000000e+00 3.1305960336348480e+01
0.0000000000000000e+00 3.1305960336348480e+01
0.0000000000000000e+00 3.1305960336348480e+01
ITEM: ATOMS id x y z type
4 14.1887 16.7527 21.1878 1
7 9.96748 6.42179 31.2672 2
3 25.1472 20.6272 11.0312 1
2 30.5862 13.5041 1.0708 1
10 9.25476 20.1706 9.63481 2
9 24.5953 27.3472 24.4635 2
5 27.956 30.6438 2.11596 1
1 19.1089 10.0265 15.2548 1
8 6.01826 12.3516 14.5423 2
6 19.2457 8.20432 15.9627 2
ITEM: TIMESTEP
550
ITEM: NUMBER OF ATOMS
10
ITEM: BOX BOUNDS ff ff ff
0.0000000000000000e+00 3.1305960336348480e+01
0.0000000000000000e+00 3.1305960336348480e+01
0.0000000000000000e+00 3.1305960336348480e+01
ITEM: ATOMS id x y z type
4 14.0666 16.7236 21.5392 1
7 10.1885 6.5663 30.7483 2
3 24.8678 20.7781 10.4049 1
2 30.7867 13.9976 1.01015 1
10 9.0703 20.3095 9.61664 2
9 24.5808 27.107 24.6338 2
5 28.4205 30.4823 2.73475 1
1 18.9002 9.48424 15.2111 1
8 6.1001 12.6144 14.3601 2
6 18.9092 8.21438 15.6962 2
ITEM: TIMESTEP
560
ITEM: NUMBER OF ATOMS
10
ITEM: BOX BOUNDS ff ff ff
0.0000000000000000e+00 3.1305960336348480e+01
0.0000000000000000e+00 3.1305960336348480e+01
0.0000000000000000e+00 3.1305960336348480e+01
ITEM: ATOMS id x y z type
4 13.946 16.6903 21.8815 1
7 10.4017 6.70927 30.2334 2
3 24.5916 20.9328 9.78435 1
2 30.9881 14.485 0.94654 1
10 8.89163 20.4476 9.59993 2
9 24.5737 26.8699 24.8048 2
5 28.8748 30.3238 3.34789 1
1 18.6956 8.89764 15.1813 1
8 6.18238 12.8771 14.1812 2
6 18.5713 8.26877 15.4207 2
ITEM: TIMESTEP
570
ITEM: NUMBER OF ATOMS
10
ITEM: BOX BOUNDS ff ff ff
0.0000000000000000e+00 3.1305960336348480e+01
0.0000000000000000e+00 3.1305960336348480e+01
0.0000000000000000e+00 3.1305960336348480e+01
ITEM: ATOMS id x y z type
4 13.828 16.6581 22.2167 1
7 10.6127 6.84716 29.7293 2
3 24.3213 21.0843 9.16786 1
2 31.1892 14.9637 0.884992 1
10 8.71368 20.5905 9.58659 2
9 24.5687 26.6384 24.9717 2
5 29.322 30.1645 3.96133 1
1 18.513 8.37273 15.124 1
8 6.26472 13.1384 14.013 2
6 18.2119 8.26444 15.1767 2
ITEM: TIMESTEP
580
ITEM: NUMBER OF ATOMS
10
ITEM: BOX BOUNDS ff ff ff
0.0000000000000000e+00 3.1305960336348480e+01
0.0000000000000000e+00 3.1305960336348480e+01
0.0000000000000000e+00 3.1305960336348480e+01
ITEM: ATOMS id x y z type
4 13.7037 16.6236 22.5477 1