ITEM: TIMESTEP
0
ITEM: NUMBER OF ATOMS
100
ITEM: BOX BOUNDS ff ff ff
0.0000000000000000e+00 3.5200000000000003e+01
0.0000000000000000e+00 3.5200000000000003e+01
0.0000000000000000e+00 3.5200000000000003e+01
ITEM: ATOMS id x y z type
80 10.3747 22.7281 1.05342 2
52 32.5039 24.9544 0.0048134 2
46 1.44061 29.9285 0.431061 1
61 34.6509 28.0583 1.477 2
53 10.4988 30.2972 1.28461 2
70 28.1313 31.2962 1.51698 2
34 0.743344 32.5779 1.2731 1
72 5.43784 14.5832 2.7516 2
65 3.91746 16.8137 2.62192 2
6 30.2421 25.6856 4.67382 1
26 6.33123 34.6473 4.30217 1
95 5.96108 8.70454 5.94881 2
20 7.70619 17.1825 6.01216 1
1 2.05356 18.2653 6.00135 1
24 32.6065 23.0614 5.9387 1
32 27.8699 3.68234 7.43856 1
28 15.4807 20.9147 6.94863 1
51 33.8926 26.3203 6.37299 2
73 28.4586 6.1663 8.19722 2
74 32.9954 13.2368 7.65267 2
19 17.7732 6.41559 9.23661 1
22 34.7439 8.22932 9.45283 1
60 32.6523 18.4812 9.12721 2
59 10.7831 21.9683 9.1983 2
2 16.7242 11.9134 10.6064 1
49 12.3121 23.4512 10.7572 1
35 30.6422 26.7792 10.8293 1
7 21.6538 2.57262 12.4316 1
57 33.7807 10.8307 11.6125 2
67 19.8053 16.2299 11.9183 2
44 10.8017 18.2656 11.4478 1
10 0.613335 29.9229 11.8171 1
42 0.955239 3.49844 14.277 1
89 14.1698 23.8599 14.7603 2
90 22.0597 30.7838 14.2851 2
41 34.8397 34.2961 15.0502 1
88 30.4526 9.01715 15.252 2
78 10.6716 14.4081 16.2737 2
16 23.9379 23.5186 15.6304 1
31 15.3261 27.5271 15.1858 1
50 8.39477 9.3712 16.9166 1
14 26.2771 20.4357 16.6438 1
55 32.8704 24.5448 16.3804 2
79 8.1726 6.56064 18.2027 2
77 25.8067 34.3109 17.6226 2
84 31.7612 1.76673 19.7478 2
5 13.8715 8.41629 18.9139 1
11 12.0642 10.5358 18.9848 1
68 22.7266 11.4322 19.5905 2
82 20.6207 28.2625 19.7814 2
40 14.5606 9.67512 21.0232 1
17 3.14654 13.5539 21.1366 1
100 18.8088 22.8968 20.9488 2
58 22.5271 1.53228 21.7737 2
23 16.165 10.7685 22.4326 1
85 34.8746 22.8215 22.278 2
13 2.96095 27.0228 21.7118 1
75 32.7857 9.11606 23.1822 2
9 11.2125 22.3043 23.2182 1
76 30.2168 22.6205 22.761 2
54 12.7825 10.4146 23.8945 2
15 32.9438 24.9705 24.7673 1
91 26.1712 34.6527 24.3444 2
39 29.9347 34.8706 24.9385 1
48 8.10122 3.54727 25.4221 1
81 34.4862 7.10774 26.2583 2
83 2.64779 8.57587 25.8254 2
36 24.1026 11.3488 25.3016 1
86 4.26735 18.876 26.1453 2
37 27.9821 22.4971 25.4699 1
56 6.23217 24.1496 25.8423 2
38 4.8709 25.1569 25.5489 1
71 11.1501 29.5133 26.3516 2
92 26.7113 30.6338 26.3301 2
94 24.729 13.5187 27.5392 2
87 22.393 0.00794516 27.9344 2
25 19.7733 7.28169 28.09 1
97 27.8873 14.212 28.2527 2
66 31.4227 15.8748 27.6971 2
45 34.3971 23.0795 28.6678 1
18 4.11499 27.8421 28.6331 1
69 32.3136 29.1364 27.8253 2
47 28.8415 0.27612 29.5436 1
33 24.5944 5.00521 29.6981 1
27 5.8457 5.42823 29.1105 1
8 26.2724 10.6579 29.7972 1
93 30.2122 16.0907 29.9488 2
62 7.98311 24.8912 29.0471 2
21 22.4021 12.4193 30.8625 1
63 6.1177 0.969474 31.55 2
30 7.19182 31.3692 31.9546 1
3 8.18903 0.954905 33.0945 1
96 13.733 4.57189 33.2811 2
4 23.3696 11.1901 33.8185 1
99 30.8005 12.8781 32.8764 2
43 29.616 28.9252 33.2717 1
64 8.42115 30.3389 33.4368 2
98 30.6803 33.5328 33.497 2
12 24.4778 16.4596 34.53 1
29 27.2346 25.7879 34.2852 1
ITEM: TIMESTEP
10
ITEM: NUMBER OF ATOMS
99
ITEM: BOX BOUNDS ff ff ff
0.0000000000000000e+00 3.5200000000000003e+01
0.0000000000000000e+00 3.5200000000000003e+01
0.0000000000000000e+00 3.5200000000000003e+01
ITEM: ATOMS id x y z type
1 10.3747 22.7281 1.05342 2
2 32.5039 24.9544 0.0048134 2
3 1.44061 29.9285 0.431061 1
4 32.0209 2.26621 1.72715 3
5 34.6509 28.0583 1.477 2
6 10.4988 30.2972 1.28461 2
7 28.1313 31.2962 1.51698 2
8 0.743344 32.5779 1.2731 1
9 5.43784 14.5832 2.7516 2
10 3.91746 16.8137 2.62192 2
11 30.2421 25.6856 4.67382 1
12 6.33123 34.6473 4.30217 1
13 5.96108 8.70454 5.94881 2
14 7.70619 17.1825 6.01216 1
15 2.05356 18.2653 6.00135 1
16 32.6065 23.0614 5.9387 1
17 27.8699 3.68234 7.43856 1
18 15.4807 20.9147 6.94863 1
19 33.8926 26.3203 6.37299 2
20 28.4586 6.1663 8.19722 2
21 32.9954 13.2368 7.65267 2
22 17.7732 6.41559 9.23661 1
23 34.7439 8.22932 9.45283 1
24 32.6523 18.4812 9.12721 2
25 10.7831 21.9683 9.1983 2
26 16.7242 11.9134 10.6064 1
27 12.3121 23.4512 10.7572 1
28 30.6422 26.7792 10.8293 1
29 21.6538 2.57262 12.4316 1
30 33.7807 10.8307 11.6125 2
31 19.8053 16.2299 11.9183 2
32 10.8017 18.2656 11.4478 1
33 0.613335 29.9229 11.8171 1
34 0.955239 3.49844 14.277 1
35 14.1698 23.8599 14.7603 2
36 22.0597 30.7838 14.2851 2
37 34.8397 34.2961 15.0502 1
38 30.4526 9.01715 15.252 2
39 10.6716 14.4081 16.2737 2
40 23.9379 23.5186 15.6304 1
41 15.3261 27.5271 15.1858 1
42 8.39477 9.3712 16.9166 1
43 26.2771 20.4357 16.6438 1
44 32.8704 24.5448 16.3804 2
45 8.1726 6.56064 18.2027 2
46 25.8067 34.3109 17.6226 2
47 31.7612 1.76673 19.7478 2
48 13.8715 8.41629 18.9139 1
49 12.0642 10.5358 18.9848 1
50 22.7266 11.4322 19.5905 2
51 20.6207 28.2625 19.7814 2
52 3.14654 13.5539 21.1366 1
53 18.8088 22.8968 20.9488 2
54 22.5271 1.53228 21.7737 2
55 34.8746 22.8215 22.278 2
56 2.96095 27.0228 21.7118 1
57 32.7857 9.11606 23.1822 2
58 11.2125 22.3043 23.2182 1
59 30.2168 22.6205 22.761 2
60 12.7825 10.4146 23.8945 2
61 32.9438 24.9705 24.7673 1
62 2.08882 27.2157 24.9491 2
63 26.1712 34.6527 24.3444 2
64 29.9347 34.8706 24.9385 1
65 8.10122 3.54727 25.4221 1
66 34.4862 7.10774 26.2583 2
67 2.64779 8.57587 25.8254 2
68 24.1026 11.3488 25.3016 1
69 4.26735 18.876 26.1453 2
70 9.01425 22.0908 26.442 1
71 27.9821 22.4971 25.4699 1
72 11.1501 29.5133 26.3516 2
73 26.7113 30.6338 26.3301 2
75 0.642253 33.5414 24.0582 2
74 24.729 13.5187 27.5392 2
76 22.393 0.00794516 27.9344 2
77 19.7733 7.28169 28.09 1
78 27.8873 14.212 28.2527 2
79 31.4227 15.8748 27.6971 2
80 34.3971 23.0795 28.6678 1
81 4.11499 27.8421 28.6331 1
82 32.3136 29.1364 27.8253 2
83 28.8415 0.27612 29.5436 1
84 24.5944 5.00521 29.6981 1
85 5.8457 5.42823 29.1105 1
86 26.2724 10.6579 29.7972 1
87 30.2122 16.0907 29.9488 2
88 7.98311 24.8912 29.0471 2
89 22.4021 12.4193 30.8625 1
91 14.9707 24.8495 29.0668 1
90 6.1177 0.969474 31.55 2
92 8.18903 0.954905 33.0945 1
93 13.733 4.57189 33.2811 2
94 23.3696 11.1901 33.8185 1
95 30.8005 12.8781 32.8764 2
96 29.616 28.9252 33.2717 1
97 30.6803 33.5328 33.497 2
98 24.4778 16.4596 34.53 1
99 27.2346 25.7879 34.2852 1
ITEM: TIMESTEP
20
ITEM: NUMBER OF ATOMS
99
ITEM: BOX BOUNDS ff ff ff
0.0000000000000000e+00 3.5200000000000003e+01
0.0000000000000000e+00 3.5200000000000003e+01
0.0000000000000000e+00 3.5200000000000003e+01
ITEM: ATOMS id x y z type
1 10.3747 22.7281 1.05342 2
2 32.5039 24.9544 0.0048134 2
3 1.44061 29.9285 0.431061 1
4 32.0209 2.26621 1.72715 3
5 34.6509 28.0583 1.477 2
6 10.4988 30.2972 1.28461 2
7 28.1313 31.2962 1.51698 2
8 0.743344 32.5779 1.2731 1
9 5.43784 14.5832 2.7516 2
10 3.91746 16.8137 2.62192 2
11 30.2421 25.6856 4.67382 1
12 6.33123 34.6473 4.30217 1
13 5.96108 8.70454 5.94881 2
14 7.70619 17.1825 6.01216 1
15 2.05356 18.2653 6.00135 1
16 32.6065 23.0614 5.9387 1
17 27.8699 3.68234 7.43856 1
18 15.4807 20.9147 6.94863 1
19 33.8926 26.3203 6.37299 2
20 28.4586 6.1663 8.19722 2
21 32.9954 13.2368 7.65267 2
22 17.7732 6.41559 9.23661 1
23 34.7439 8.22932 9.45283 1
24 32.6523 18.4812 9.12721 2
25 10.7831 21.9683 9.1983 2
26 16.7242 11.9134 10.6064 1
27 12.3121 23.4512 10.7572 1
28 30.6422 26.7792 10.8293 1
29 21.6538 2.57262 12.4316 1
30 33.7807 10.8307 11.6125 2
31 19.8053 16.2299 11.9183 2
32 10.8017 18.2656 11.4478 1
33 0.613335 29.9229 11.8171 1
36 9.56467 24.9867 11.7523 2
34 0.955239 3.49844 14.277 1
35 14.1698 23.8599 14.7603 2
37 22.0597 30.7838 14.2851 2
38 34.8397 34.2961 15.0502 1
39 30.4526 9.01715 15.252 2
40 10.6716 14.4081 16.2737 2
41 23.9379 23.5186 15.6304 1
42 15.3261 27.5271 15.1858 1
43 8.39477 9.3712 16.9166 1
44 26.2771 20.4357 16.6438 1
45 32.8704 24.5448 16.3804 2
46 8.1726 6.56064 18.2027 2
52 25.1776 16.2948 16.7609 1
47 25.8067 34.3109 17.6226 2
48 31.7612 1.76673 19.7478 2
49 13.8715 8.41629 18.9139 1
50 12.0642 10.5358 18.9848 1
51 22.7266 11.4322 19.5905 2
53 20.6207 28.2625 19.7814 2
54 3.14654 13.5539 21.1366 1
55 18.8088 22.8968 20.9488 2
56 22.5271 1.53228 21.7737 2
57 34.8746 22.8215 22.278 2
58 2.96095 27.0228 21.7118 1
59 32.7857 9.11606 23.1822 2
60 11.2125 22.3043 23.2182 1
61 30.2168 22.6205 22.761 2
62 12.7825 10.4146 23.8945 2
63 32.9438 24.9705 24.7673 1
64 1.29692 29.7212 24.2193 2
65 26.1712 34.6527 24.3444 2
66 29.9347 34.8706 24.9385 1
67 8.10122 3.54727 25.4221 1
68 34.4862 7.10774 26.2583 2
69 2.64779 8.57587 25.8254 2
70 24.1026 11.3488 25.3016 1
71 4.26735 18.876 26.1453 2
72 27.9821 22.4971 25.4699 1
73 11.1501 29.5133 26.3516 2
74 26.7113 30.6338 26.3301 2
75 24.729 13.5187 27.5392 2
76 12.4 19.5853 27.1718 1
77 22.393 0.00794516 27.9344 2
78 19.7733 7.28169 28.09 1
79 27.8873 14.212 28.2527 2
80 31.4227 15.8748 27.6971 2
81 34.3971 23.0795 28.6678 1
82 4.11499 27.8421 28.6331 1
83 32.3136 29.1364 27.8253 2
84 28.8415 0.27612 29.5436 1
85 24.5944 5.00521 29.6981 1
86 5.8457 5.42823 29.1105 1
87 26.2724 10.6579 29.7972 1
88 30.2122 16.0907 29.9488 2
89 7.98311 24.8912 29.0471 2
90 22.4021 12.4193 30.8625 1
91 6.1177 0.969474 31.55 2
92 8.18903 0.954905 33.0945 1
93 13.733 4.57189 33.2811 2
94 23.3696 11.1901 33.8185 1
95 30.8005 12.8781 32.8764 2
96 29.616 28.9252 33.2717 1
97 30.6803 33.5328 33.497 2
98 24.4778 16.4596 34.53 1
99 27.2346 25.7879 34.2852 1
ITEM: TIMESTEP
30
ITEM: NUMBER OF ATOMS
98
ITEM: BOX BOUNDS ff ff ff
0.0000000000000000e+00 3.5200000000000003e+01
0.0000000000000000e+00 3.5200000000000003e+01
0.0000000000000000e+00 3.5200000000000003e+01
ITEM: ATOMS id x y z type
1 22.5375 0.111076 1.25597 3
2 10.3747 22.7281 1.05342 2
3 32.5039 24.9544 0.0048134 2
4 1.44061 29.9285 0.431061 1
5 32.0209 2.26621 1.72715 3
6 34.6509 28.0583 1.477 2
7 10.4988 30.2972 1.28461 2
8 28.1313 31.2962 1.51698 2
9 0.743344 32.5779 1.2731 1
10 5.43784 14.5832 2.7516 2
11 3.91746 16.8137 2.62192 2
12 20.7672 18.1939 3.01717 2
13 30.2421 25.6856 4.67382 1
14 6.33123 34.6473 4.30217 1
15 5.96108 8.70454 5.94881 2
16 7.70619 17.1825 6.01216 1
17 2.05356 18.2653 6.00135 1
18 32.6065 23.0614 5.9387 1
19 27.8699 3.68234 7.43856 1
20 34.7893 8.23894 5.17271 1
21 33.8926 26.3203 6.37299 2
22 28.4586 6.1663 8.19722 2
23 32.9954 13.2368 7.65267 2
24 17.7732 6.41559 9.23661 1
25 34.7439 8.22932 9.45283 1
26 32.6523 18.4812 9.12721 2
27 14.1991 18.8813 10.3587 1
28 16.7242 11.9134 10.6064 1
29 30.6422 26.7792 10.8293 1
30 21.6538 2.57262 12.4316 1
31 33.7807 10.8307 11.6125 2
32 19.8053 16.2299 11.9183 2
33 10.8017 18.2656 11.4478 1
34 0.613335 29.9229 11.8171 1
35 0.955239 3.49844 14.277 1
36 14.1698 23.8599 14.7603 2
37 22.0597 30.7838 14.2851 2
38 34.8397 34.2961 15.0502 1
39 30.4526 9.01715 15.252 2
40 10.6716 14.4081 16.2737 2
41 23.9379 23.5186 15.6304 1
42 15.3261 27.5271 15.1858 1
43 8.39477 9.3712 16.9166 1
44 26.2771 20.4357 16.6438 1
45 32.8704 24.5448 16.3804 2
46 8.1726 6.56064 18.2027 2
47 25.8067 34.3109 17.6226 2
48 31.7612 1.76673 19.7478 2
49 13.8715 8.41629 18.9139 1
50 12.0642 10.5358 18.9848 1
51 22.7266 11.4322 19.5905 2
52 20.6207 28.2625 19.7814 2
53 3.14654 13.5539 21.1366 1
54 18.8088 22.8968 20.9488 2
55 22.5271 1.53228 21.7737 2
56 34.8746 22.8215 22.278 2
57 2.96095 27.0228 21.7118 1
58 32.7857 9.11606 23.1822 2
59 11.2125 22.3043 23.2182 1
60 30.2168 22.6205 22.761 2
61 4.4852 32.0806 23.532 2
62 12.7825 10.4146 23.8945 2
63 32.9438 24.9705 24.7673 1
64 26.1712 34.6527 24.3444 2
65 29.9347 34.8706 24.9385 1
66 8.10122 3.54727 25.4221 1
67 34.4862 7.10774 26.2583 2
68 2.64779 8.57587 25.8254 2
69 24.1026 11.3488 25.3016 1
70 4.26735 18.876 26.1453 2
71 27.9821 22.4971 25.4699 1
72 11.1501 29.5133 26.3516 2
73 26.7113 30.6338 26.3301 2
74 24.729 13.5187 27.5392 2
75 22.393 0.00794516 27.9344 2
76 19.7733 7.28169 28.09 1
77 27.8873 14.212 28.2527 2
78 31.4227 15.8748 27.6971 2
79 15.5883 17.2259 27.8591 1
80 34.3971 23.0795 28.6678 1
81 4.11499 27.8421 28.6331 1
82 32.3136 29.1364 27.8253 2
83 28.8415 0.27612 29.5436 1
84 24.5944 5.00521 29.6981 1
85 5.8457 5.42823 29.1105 1
86 26.2724 10.6579 29.7972 1
87 30.2122 16.0907 29.9488 2
88 7.98311 24.8912 29.0471 2
89 22.4021 12.4193 30.8625 1
90 6.1177 0.969474 31.55 2
91 8.18903 0.954905 33.0945 1
92 13.733 4.57189 33.2811 2
93 23.3696 11.1901 33.8185 1
94 30.8005 12.8781 32.8764 2
95 29.616 28.9252 33.2717 1
96 30.6803 33.5328 33.497 2
97 24.4778 16.4596 34.53 1
98 27.2346 25.7879 34.2852 1
ITEM: TIMESTEP
40
ITEM: NUMBER OF ATOMS
98
ITEM: BOX BOUNDS ff ff ff
0.0000000000000000e+00 3.5200000000000003e+01
0.0000000000000000e+00 3.5200000000000003e+01
0.0000000000000000e+00 3.5200000000000003e+01
ITEM: ATOMS id x y z type
1 22.5375 0.111076 1.25597 3
2 10.3747 22.7281 1.05342 2
3 32.5039 24.9544 0.0048134 2
4 1.44061 29.9285 0.431061 1
5 31.9569 2.31207 1.71796 3
6 34.6509 28.0583 1.477 2
7 10.4988 30.2972 1.28461 2
8 28.1313 31.2962 1.51698 2
9 0.743344 32.5779 1.2731 1
11 5.43784 14.5832 2.7516 2
12 3.91746 16.8137 2.62192 2
10 26.6234 0.607214 5.74882 1
14 30.2421 25.6856 4.67382 1
15 6.33123 34.6473 4.30217 1
16 5.96108 8.70454 5.94881 2
13 31.6519 14.0802 6.43555 2
17 7.70619 17.1825 6.01216 1
18 2.05356 18.2653 6.00135 1
19 32.6065 23.0614 5.9387 1
20 27.8699 3.68234 7.43856 1
21 33.8926 26.3203 6.37299 2
22 28.4586 6.1663 8.19722 2
23 32.9954 13.2368 7.65267 2
24 17.7732 6.41559 9.23661 1
25 34.7439 8.22932 9.45283 1
26 32.6523 18.4812 9.12721 2
27 16.7242 11.9134 10.6064 1
28 30.6422 26.7792 10.8293 1
29 21.6538 2.57262 12.4316 1
30 33.7807 10.8307 11.6125 2
31 19.8053 16.2299 11.9183 2
32 10.8017 18.2656 11.4478 1
33 0.613335 29.9229 11.8171 1
34 0.955239 3.49844 14.277 1
35 14.1698 23.8599 14.7603 2
36 22.0597 30.7838 14.2851 2
37 34.8397 34.2961 15.0502 1
38 30.4526 9.01715 15.252 2
39 10.7287 14.4284 16.2614 2
40 12.2835 14.6336 16.4828 1
41 23.9379 23.5186 15.6304 1
42 15.3261 27.5271 15.1858 1
43 8.39477 9.3712 16.9166 1
44 26.2771 20.4357 16.6438 1
45 32.8704 24.5448 16.3804 2
46 8.1726 6.56064 18.2027 2
47 25.8067 34.3109 17.6226 2
48 31.7612 1.76673 19.7478 2
49 13.8715 8.41629 18.9139 1
50 12.0642 10.5358 18.9848 1
51 22.7266 11.4322 19.5905 2
52 20.6207 28.2625 19.7814 2
53 3.14654 13.5539 21.1366 1
54 18.8088 22.8968 20.9488 2
55 22.5271 1.53228 21.7737 2
56 34.8746 22.8215 22.278 2
57 2.96095 27.0228 21.7118 1
58 32.7857 9.11606 23.1822 2
59 11.2125 22.3043 23.2182 1
60 30.2168 22.6205 22.761 2
61 7.48753 34.3024 22.8848 2
62 12.7825 10.4146 23.8945 2
63 32.9438 24.9705 24.7673 1
64 26.1712 34.6527 24.3444 2
65 29.9347 34.8706 24.9385 1
66 8.10122 3.54727 25.4221 1
67 34.4862 7.10774 26.2583 2
68 2.64779 8.57587 25.8254 2
69 24.1026 11.3488 25.3016 1
70 4.26735 18.876 26.1453 2
71 27.9821 22.4971 25.4699 1
72 11.1501 29.5133 26.3516 2
73 26.7113 30.6338 26.3301 2
74 24.729 13.5187 27.5392 2
75 22.393 0.00794516 27.9344 2
76 19.7733 7.28169 28.09 1
77 27.8873 14.212 28.2527 2
78 18.5906 15.0041 28.5063 1
79 31.4227 15.8748 27.6971 2
80 34.3971 23.0795 28.6678 1
81 4.11499 27.8421 28.6331 1
82 32.3136 29.1364 27.8253 2
83 28.8415 0.27612 29.5436 1
84 24.5944 5.00521 29.6981 1
85 5.8457 5.42823 29.1105 1
86 26.2724 10.6579 29.7972 1
87 30.2122 16.0907 29.9488 2
88 7.98311 24.8912 29.0471 2
89 22.4021 12.4193 30.8625 1
90 6.1177 0.969474 31.55 2
91 8.18903 0.954905 33.0945 1
92 13.733 4.57189 33.2811 2
93 23.3696 11.1901 33.8185 1
94 30.8005 12.8781 32.8764 2
95 29.616 28.9252 33.2717 1
96 30.6803 33.5328 33.497 2
97 24.4778 16.4596 34.53 1
98 27.2346 25.7879 34.2852 1
ITEM: TIMESTEP
50
ITEM: NUMBER OF ATOMS
95
ITEM: BOX BOUNDS ff ff ff
0.0000000000000000e+00 3.5200000000000003e+01
0.0000000000000000e+00 3.5200000000000003e+01
0.0000000000000000e+00 3.5200000000000003e+01
ITEM: ATOMS id x y z type
1 22.5375 0.111076 1.25597 3
2 22.7124 18.0032 0.693546 3
3 10.3747 22.7281 1.05342 2
4 32.5039 24.9544 0.0048134 2
5 1.44061 29.9285 0.431061 1
6 31.8014 2.42357 1.69561 3
7 34.6509 28.0583 1.477 2
8 10.4988 30.2972 1.28461 2
9 28.1313 31.2962 1.51698 2
10 0.743344 32.5779 1.2731 1
11 5.43784 14.5832 2.7516 2
12 3.91746 16.8137 2.62192 2
13 30.2421 25.6856 4.67382 1
14 6.33123 34.6473 4.30217 1
15 5.96108 8.70454 5.94881 2
16 7.70619 17.1825 6.01216 1
17 2.05356 18.2653 6.00135 1
18 32.6065 23.0614 5.9387 1
19 27.8699 3.68234 7.43856 1
20 33.8926 26.3203 6.37299 2
21 28.4586 6.1663 8.19722 2
22 17.7732 6.41559 9.23661 1
23 34.7439 8.22932 9.45283 1
24 32.6523 18.4812 9.12721 2
27 23.1453 1.38962 10.5413 1
25 16.7242 11.9134 10.6064 1
26 30.6422 26.7792 10.8293 1
28 33.7807 10.8307 11.6125 2
29 19.8053 16.2299 11.9183 2
30 10.8017 18.2656 11.4478 1
31 0.613335 29.9229 11.8171 1
32 0.955239 3.49844 14.277 1
33 14.1698 23.8599 14.7603 2
34 22.0597 30.7838 14.2851 2
35 34.8397 34.2961 15.0502 1
37 30.4526 9.01715 15.252 2
38 23.9379 23.5186 15.6304 1
39 15.3261 27.5271 15.1858 1
36 16.7615 7.82899 17.937 1
40 8.39477 9.3712 16.9166 1
41 26.2771 20.4357 16.6438 1
42 32.8704 24.5448 16.3804 2
43 8.1726 6.56064 18.2027 2
44 25.8067 34.3109 17.6226 2
45 31.7612 1.76673 19.7478 2
46 13.8715 8.41629 18.9139 1
47 12.0642 10.5358 18.9848 1
48 22.7266 11.4322 19.5905 2
49 20.6207 28.2625 19.7814 2
50 3.14654 13.5539 21.1366 1
51 18.8088 22.8968 20.9488 2
52 22.5271 1.53228 21.7737 2
53 34.8746 22.8215 22.278 2
54 2.96095 27.0228 21.7118 1
55 10.3148 34.0054 22.2754 2
56 32.7857 9.11606 23.1822 2
57 11.2125 22.3043 23.2182 1
58 30.2168 22.6205 22.761 2
59 12.7825 10.4146 23.8945 2
60 32.9438 24.9705 24.7673 1
61 26.1712 34.6527 24.3444 2
62 29.9347 34.8706 24.9385 1
63 8.10122 3.54727 25.4221 1
64 34.4862 7.10774 26.2583 2
65 2.64779 8.57587 25.8254 2
66 24.1026 11.3488 25.3016 1
67 4.26735 18.876 26.1453 2
68 27.9821 22.4971 25.4699 1
69 11.1501 29.5133 26.3516 2
70 26.7113 30.6338 26.3301 2
71 24.729 13.5187 27.5392 2
72 22.393 0.00794516 27.9344 2
73 19.7733 7.28169 28.09 1
74 27.8873 14.212 28.2527 2
75 31.4227 15.8748 27.6971 2
76 34.3971 23.0795 28.6678 1
77 4.11499 27.8421 28.6331 1
78 32.3136 29.1364 27.8253 2
79 28.8415 0.27612 29.5436 1
80 24.5944 5.00521 29.6981 1
81 5.8457 5.42823 29.1105 1
82 26.2724 10.6579 29.7972 1
83 21.4305 12.9049 29.1339 1
84 30.2122 16.0907 29.9488 2
85 7.98311 24.8912 29.0471 2
86 22.3894 12.4263 30.8444 1
87 6.1177 0.969474 31.55 2
88 8.18903 0.954905 33.0945 1
89 13.733 4.57189 33.2811 2
90 23.3696 11.1901 33.8185 1
91 30.8005 12.8781 32.8764 2
92 29.616 28.9252 33.2717 1
93 30.6803 33.5328 33.497 2
94 24.4778 16.4596 34.53 1
95 27.2346 25.7879 34.2852 1
ITEM: TIMESTEP
60
ITEM: NUMBER OF ATOMS
94
ITEM: BOX BOUNDS ff ff ff
0.0000000000000000e+00 3.5200000000000003e+01
0.0000000000000000e+00 3.5200000000000003e+01
0.0000000000000000e+00 3.5200000000000003e+01
ITEM: ATOMS id x y z type
1 22.5375 0.111076 1.25597 3
2 22.7124 18.0032 0.693546 3
3 10.3747 22.7281 1.05342 2
4 32.5039 24.9544 0.0048134 2
5 1.44061 29.9285 0.431061 1
6 31.652 2.53069 1.67414 3
7 34.6509 28.0583 1.477 2
8 10.4988 30.2972 1.28461 2
9 28.1313 31.2962 1.51698 2
10 0.743344 32.5779 1.2731 1
11 5.43784 14.5832 2.7516 2
12 3.91746 16.8137 2.62192 2
13 30.2421 25.6856 4.67382 1
14 6.33123 34.6473 4.30217 1
15 5.96108 8.70454 5.94881 2
16 7.70619 17.1825 6.01216 1
17 2.05356 18.2653 6.00135 1
18 32.6065 23.0614 5.9387 1
19 26.3479 1.70564 6.76293 1
20 27.8699 3.68234 7.43856 1
21 33.8926 26.3203 6.37299 2
22 28.4586 6.1663 8.19722 2
23 17.7732 6.41559 9.23661 1
24 34.7439 8.22932 9.45283 1
25 32.6523 18.4812 9.12721 2
26 16.7242 11.9134 10.6064 1
27 30.6422 26.7792 10.8293 1
28 33.7807 10.8307 11.6125 2
29 19.8053 16.2299 11.9183 2
30 10.8017 18.2656 11.4478 1
31 0.613335 29.9229 11.8171 1
32 0.955239 3.49844 14.277 1
33 14.1698 23.8599 14.7603 2
34 22.0597 30.7838 14.2851 2
35 34.8397 34.2961 15.0502 1
36 30.4526 9.01715 15.252 2
37 23.9379 23.5186 15.6304 1
38 15.3261 27.5271 15.1858 1
39 8.39477 9.3712 16.9166 1
40 26.2771 20.4357 16.6438 1
41 32.8704 24.5448 16.3804 2
42 8.1726 6.56064 18.2027 2
43 25.8067 34.3109 17.6226 2
44 31.7612 1.76673 19.7478 2
45 14.8293 8.88806 19.4351 1
46 12.0642 10.5358 18.9848 1
47 22.7266 11.4322 19.5905 2
48 20.6207 28.2625 19.7814 2
49 3.14654 13.5539 21.1366 1
50 18.8088 22.8968 20.9488 2
51 22.5271 1.53228 21.7737 2
56 11.0618 13.1877 22.3762 2
52 34.8746 22.8215 22.278 2
53 2.96095 27.0228 21.7118 1
54 12.9771 32.0352 21.7015 2
55 32.7857 9.11606 23.1822 2
57 11.2125 22.3043 23.2182 1
58 30.2168 22.6205 22.761 2
59 32.9438 24.9705 24.7673 1
60 26.1712 34.6527 24.3444 2
61 29.9347 34.8706 24.9385 1
62 8.10122 3.54727 25.4221 1
63 34.4862 7.10774 26.2583 2
64 2.64779 8.57587 25.8254 2
65 24.1026 11.3488 25.3016 1
66 4.26735 18.876 26.1453 2
67 27.9821 22.4971 25.4699 1
68 11.1501 29.5133 26.3516 2
69 26.7113 30.6338 26.3301 2
70 24.729 13.5187 27.5392 2
71 22.393 0.00794516 27.9344 2
72 19.7733 7.28169 28.09 1
73 27.8873 14.212 28.2527 2
74 31.4227 15.8748 27.6971 2
75 18.8985 17.3451 28.5818 3
76 34.3971 23.0795 28.6678 1
77 4.11499 27.8421 28.6331 1
78 32.3136 29.1364 27.8253 2
79 28.8415 0.27612 29.5436 1
80 24.5944 5.00521 29.6981 1
81 5.8457 5.42823 29.1105 1
82 26.2724 10.6579 29.7972 1
84 30.2122 16.0907 29.9488 2
85 7.98311 24.8912 29.0471 2
83 6.43966 14.5096 32.4098 1
86 6.1177 0.969474 31.55 2
87 8.18903 0.954905 33.0945 1
88 13.733 4.57189 33.2811 2
89 23.3696 11.1901 33.8185 1
90 30.8005 12.8781 32.8764 2
91 29.616 28.9252 33.2717 1
92 30.6803 33.5328 33.497 2
93 24.4778 16.4596 34.53 1
94 27.2346 25.7879 34.2852 1
ITEM: TIMESTEP
70
ITEM: NUMBER OF ATOMS
93
ITEM: BOX BOUNDS ff ff ff
0.0000000000000000e+00 3.5200000000000003e+01
0.0000000000000000e+00 3.5200000000000003e+01
0.0000000000000000e+00 3.5200000000000003e+01
ITEM: ATOMS id x y z type
1 22.5375 0.111076 1.25597 3
2 22.7124 18.0032 0.693546 3
3 10.3747 22.7281 1.05342 2
4 32.5039 24.9544 0.0048134 2
5 1.44061 29.9285 0.431061 1
6 31.5085 2.63361 1.65351 3
7 34.6509 28.0583 1.477 2
8 10.4988 30.2972 1.28461 2
9 28.1313 31.2962 1.51698 2
10 0.743344 32.5779 1.2731 1
11 5.43784 14.5832 2.7516 2
12 3.91746 16.8137 2.62192 2
13 30.2421 25.6856 4.67382 1
14 6.33123 34.6473 4.30217 1
15 5.96108 8.70454 5.94881 2
16 7.70619 17.1825 6.01216 1
17 2.05356 18.2653 6.00135 1
18 32.6065 23.0614 5.9387 1
19 33.8926 26.3203 6.37299 2
20 28.4586 6.1663 8.19722 2
21 17.7732 6.41559 9.23661 1
22 34.7439 8.22932 9.45283 1
23 32.6523 18.4812 9.12721 2
24 16.7242 11.9134 10.6064 1
25 30.6422 26.7792 10.8293 1
26 22.3072 1.53798 12.0989 3
27 33.7807 10.8307 11.6125 2
28 19.8053 16.2299 11.9183 2
29 10.8017 18.2656 11.4478 1
30 0.613335 29.9229 11.8171 1
31 0.955239 3.49844 14.277 1
32 14.1698 23.8599 14.7603 2
33 22.0597 30.7838 14.2851 2
34 34.8397 34.2961 15.0502 1
35 30.4526 9.01715 15.252 2
36 23.9379 23.5186 15.6304 1
37 15.3261 27.5271 15.1858 1
38 8.39477 9.3712 16.9166 1
39 26.2771 20.4357 16.6438 1
40 32.8704 24.5448 16.3804 2
41 8.1726 6.56064 18.2027 2
42 25.8067 34.3109 17.6226 2
43 31.7612 1.76673 19.7478 2
44 15.8449 9.41743 20.0248 1
45 12.0642 10.5358 18.9848 1
46 22.7266 11.4322 19.5905 2
47 20.6207 28.2625 19.7814 2
48 3.14654 13.5539 21.1366 1
49 8.26095 17.5781 20.1894 2
50 18.8088 22.8968 20.9488 2
51 15.4842 30.1799 21.1611 2
52 22.5271 1.53228 21.7737 2
53 34.8746 22.8215 22.278 2
54 2.96095 27.0228 21.7118 1
55 32.7857 9.11606 23.1822 2
56 11.2125 22.3043 23.2182 1
57 30.2168 22.6205 22.761 2
70 2.21323 18.9364 23.7031 1
58 32.9438 24.9705 24.7673 1
59 26.1712 34.6527 24.3444 2
60 29.9347 34.8706 24.9385 1
61 8.10122 3.54727 25.4221 1
62 34.4862 7.10774 26.2583 2
63 2.64779 8.57587 25.8254 2
64 24.1026 11.3488 25.3016 1
65 4.26735 18.876 26.1453 2
66 27.9821 22.4971 25.4699 1
67 11.1501 29.5133 26.3516 2
68 26.7113 30.6338 26.3301 2
69 24.729 13.5187 27.5392 2
71 22.393 0.00794516 27.9344 2
72 19.7733 7.28169 28.09 1
73 27.8873 14.212 28.2527 2
74 31.4227 15.8748 27.6971 2
75 18.8985 17.3451 28.5818 3
76 34.3971 23.0795 28.6678 1
77 4.11499 27.8421 28.6331 1
78 32.3136 29.1364 27.8253 2
79 28.8415 0.27612 29.5436 1
80 24.5944 5.00521 29.6981 1
81 5.8457 5.42823 29.1105 1
82 26.2724 10.6579 29.7972 1
83 30.2122 16.0907 29.9488 2
84 7.98311 24.8912 29.0471 2
85 6.1177 0.969474 31.55 2
86 8.18903 0.954905 33.0945 1
87 13.733 4.57189 33.2811 2
88 23.3696 11.1901 33.8185 1
89 30.8005 12.8781 32.8764 2
90 29.616 28.9252 33.2717 1
91 30.6803 33.5328 33.497 2
92 24.4778 16.4596 34.53 1
93 27.2346 25.7879 34.2852 1
ITEM: TIMESTEP
80
ITEM: NUMBER OF ATOMS
93
ITEM: BOX BOUNDS ff ff ff
0.0000000000000000e+00 3.5200000000000003e+01
0.0000000000000000e+00 3.5200000000000003e+01
0.0000000000000000e+00 3.5200000000000003e+01
ITEM: ATOMS id x y z type
1 22.5375 0.111076 1.25597 3
2 22.7124 18.0032 0.693546 3
3 10.3747 22.7281 1.05342 2
4 32.5039 24.9544 0.0048134 2
5 1.44061 29.9285 0.431061 1
6 31.3705 2.73249 1.63369 3
7 34.6509 28.0583 1.477 2
8 10.4988 30.2972 1.28461 2
9 28.1313 31.2962 1.51698 2
10 0.743344 32.5779 1.2731 1
11 5.43784 14.5832 2.7516 2
12 3.91746 16.8137 2.62192 2
13 30.2421 25.6856 4.67382 1
14 6.33123 34.6473 4.30217 1
15 5.96108 8.70454 5.94881 2
16 7.70619 17.1825 6.01216 1
17 2.05356 18.2653 6.00135 1
18 32.6065 23.0614 5.9387 1
19 33.8926 26.3203 6.37299 2
20 28.4586 6.1663 8.19722 2
21 17.7732 6.41559 9.23661 1
22 34.7439 8.22932 9.45283 1
23 32.6523 18.4812 9.12721 2
24 16.7242 11.9134 10.6064 1
25 30.6422 26.7792 10.8293 1
26 22.3072 1.53798 12.0989 3
27 33.7807 10.8307 11.6125 2
28 19.8053 16.2299 11.9183 2
29 10.8017 18.2656 11.4478 1
31 10.4278 23.0502 10.2944 1
30 0.613335 29.9229 11.8171 1
32 0.955239 3.49844 14.277 1
33 14.1698 23.8599 14.7603 2
34 22.0597 30.7838 14.2851 2
35 34.8397 34.2961 15.0502 1
36 30.4526 9.01715 15.252 2
37 23.9379 23.5186 15.6304 1
38 15.3261 27.5271 15.1858 1
39 8.39477 9.3712 16.9166 1
40 26.2771 20.4357 16.6438 1
41 32.8704 24.5448 16.3804 2
42 8.1726 6.56064 18.2027 2
43 5.55712 21.7673 18.085 2
44 25.8067 34.3109 17.6226 2
45 31.7612 1.76673 19.7478 2
46 12.0642 10.5358 18.9848 1
47 22.7266 11.4322 19.5905 2
48 20.6207 28.2625 19.7814 2
49 16.8012 9.91592 20.58 1
50 3.14654 13.5539 21.1366 1
51 18.8088 22.8968 20.9488 2
52 17.8451 28.4328 20.6521 2
53 22.5271 1.53228 21.7737 2
54 34.8746 22.8215 22.278 2
55 2.96095 27.0228 21.7118 1
56 32.7857 9.11606 23.1822 2
57 11.2125 22.3043 23.2182 1
58 30.2168 22.6205 22.761 2
59 32.9438 24.9705 24.7673 1
60 26.1712 34.6527 24.3444 2
61 29.9347 34.8706 24.9385 1
62 8.10122 3.54727 25.4221 1
63 34.4862 7.10774 26.2583 2
64 2.64779 8.57587 25.8254 2
65 24.1026 11.3488 25.3016 1
66 4.26735 18.876 26.1453 2
67 27.9821 22.4971 25.4699 1
68 11.1501 29.5133 26.3516 2
69 26.7113 30.6338 26.3301 2
70 24.729 13.5187 27.5392 2
71 22.393 0.00794516 27.9344 2
72 19.7733 7.28169 28.09 1
73 27.8873 14.212 28.2527 2
74 31.4227 15.8748 27.6971 2
75 18.8985 17.3451 28.5818 3
76 34.3971 23.0795 28.6678 1
77 4.11499 27.8421 28.6331 1
78 32.3136 29.1364 27.8253 2
79 28.8415 0.27612 29.5436 1
80 24.5944 5.00521 29.6981 1
81 5.8457 5.42823 29.1105 1
82 26.2724 10.6579 29.7972 1
83 30.2122 16.0907 29.9488 2
84 7.98311 24.8912 29.0471 2
85 6.1177 0.969474 31.55 2
86 8.18903 0.954905 33.0945 1
87 13.733 4.57189 33.2811 2
88 23.3696 11.1901 33.8185 1
89 30.8005 12.8781 32.8764 2
90 29.616 28.9252 33.2717 1
91 30.6803 33.5328 33.497 2
92 24.4778 16.4596 34.53 1
93 27.2346 25.7879 34.2852 1
ITEM: TIMESTEP
90
ITEM: NUMBER OF ATOMS
93
ITEM: BOX BOUNDS ff ff ff
0.0000000000000000e+00 3.5200000000000003e+01
0.0000000000000000e+00 3.5200000000000003e+01
0.0000000000000000e+00 3.5200000000000003e+01
ITEM: ATOMS id x y z type
1 22.5375 0.111076 1.25597 3
2 22.7124 18.0032 0.693546 3
3 10.3747 22.7281 1.05342 2
4 32.5039 24.9544 0.0048134 2
5 18.2061 26.8884 2.30306 1
6 1.44061 29.9285 0.431061 1
7 31.238 2.82749 1.61464 3
8 34.6509 28.0583 1.477 2
9 10.4988 30.2972 1.28461 2
10 28.1313 31.2962 1.51698 2
11 0.743344 32.5779 1.2731 1
12 5.43784 14.5832 2.7516 2
13 3.91746 16.8137 2.62192 2
14 30.2421 25.6856 4.67382 1
15 6.33123 34.6473 4.30217 1
16 5.96108 8.70454 5.94881 2
17 7.70619 17.1825 6.01216 1
18 2.05356 18.2653 6.00135 1
19 32.6065 23.0614 5.9387 1
20 33.8926 26.3203 6.37299 2
21 28.4586 6.1663 8.19722 2
22 17.7732 6.41559 9.23661 1
23 34.7439 8.22932 9.45283 1
24 32.6523 18.4812 9.12721 2
25 16.7242 11.9134 10.6064 1
26 30.6422 26.7792 10.8293 1
27 22.3072 1.53798 12.0989 3
28 33.7807 10.8307 11.6125 2
29 19.8053 16.2299 11.9183 2
30 10.8017 18.2656 11.4478 1
31 0.613335 29.9229 11.8171 1
32 0.955239 3.49844 14.277 1
33 14.1698 23.8599 14.7603 2
34 22.0597 30.7838 14.2851 2
35 34.8397 34.2961 15.0502 1
36 30.4526 9.01715 15.252 2
37 23.9379 23.5186 15.6304 1
41 2.96809 25.7478 16.0742 2
38 15.3261 27.5271 15.1858 1
39 8.39477 9.3712 16.9166 1
40 26.2771 20.4357 16.6438 1
42 32.8704 24.5448 16.3804 2
43 8.1726 6.56064 18.2027 2
48 24.2729 29.055 18.4888 2
44 25.8067 34.3109 17.6226 2
45 31.7612 1.76673 19.7478 2
46 12.0642 10.5358 18.9848 1
47 22.7266 11.4322 19.5905 2
49 17.7017 10.3853 21.1029 1
50 3.14654 13.5539 21.1366 1
51 18.8088 22.8968 20.9488 2
52 16.416 25.9952 21.4656 2
53 22.5271 1.53228 21.7737 2
54 34.8746 22.8215 22.278 2
55 2.96095 27.0228 21.7118 1
56 32.7857 9.11606 23.1822 2
57 11.2125 22.3043 23.2182 1
58 30.2168 22.6205 22.761 2
59 32.9438 24.9705 24.7673 1
60 26.1712 34.6527 24.3444 2
61 29.9347 34.8706 24.9385 1
62 8.10122 3.54727 25.4221 1
63 34.4862 7.10774 26.2583 2
64 2.64779 8.57587 25.8254 2
65 24.1026 11.3488 25.3016 1
66 4.26735 18.876 26.1453 2
67 27.9821 22.4971 25.4699 1
68 11.1501 29.5133 26.3516 2
69 26.7113 30.6338 26.3301 2
70 24.729 13.5187 27.5392 2
71 22.393 0.00794516 27.9344 2
72 19.7733 7.28169 28.09 1
73 27.8873 14.212 28.2527 2
74 31.4227 15.8748 27.6971 2
75 18.8985 17.3451 28.5818 3
76 34.3971 23.0795 28.6678 1
77 4.11499 27.8421 28.6331 1
78 32.3136 29.1364 27.8253 2
79 28.8415 0.27612 29.5436 1
80 24.5944 5.00521 29.6981 1
81 5.8457 5.42823 29.1105 1
82 26.2724 10.6579 29.7972 1
83 30.2122 16.0907 29.9488 2
84 7.98311 24.8912 29.0471 2
85 6.1177 0.969474 31.55 2
86 8.18903 0.954905 33.0945 1
87 13.733 4.57189 33.2811 2
88 23.3696 11.1901 33.8185 1
89 30.8005 12.8781 32.8764 2
90 29.616 28.9252 33.2717 1
91 30.6803 33.5328 33.497 2
92 24.4778 16.4596 34.53 1
93 27.2346 25.7879 34.2852 1
ITEM: TIMESTEP
100