LAMMPS (29 Oct 2020)
  using 16 OpenMP thread(s) per MPI task
package omp 0
using multi-threaded neighbor list subroutines
# Agent Based Simulation Of Biological Systems

# remove previous dump file
shell rm dump.out
shell rm dump.foo
WARNING: Shell command 'rm' failed with error 'No such file or directory' (src/input.cpp:1218)
shell rm dump.bar
WARNING: Shell command 'rm' failed with error 'No such file or directory' (src/input.cpp:1218)

#       --- SET UP OF INPUT VARIABLES ---

#
variable rnseed index 10
variable probability equal random(0,1,${rnseed})
variable probability equal random(0,1,10)

# duration : int = N number of steps for the current run
variable time_value index 50  #default value
variable duration equal ${time_value}
variable duration equal 500

# atoms : int = N number of atoms of each type to generate
variable num_atoms index 5
variable atoms equal ${num_atoms}
variable atoms equal 40

#       --- SIMULATION BOX PROPERTIES ---

# sym measure units and atoms style
units       lj
atom_style  full

# box dimension, boudaries and structure
dimension   3
boundary    f f f
lattice     fcc 3.52
Lattice spacing in x,y,z = 1.0435320 1.0435320 1.0435320

# flag2 = on or off for bonded interactions
newton on off

# define simulation box
region      box block 0 30 0 30 0 30
create_box  3 box  bond/types 1 extra/bond/per/atom 10
Created orthogonal box = (0.0000000 0.0000000 0.0000000) to (31.305960 31.305960 31.305960)
  1 by 1 by 1 MPI processor grid

# create simulation walls
fix xwalls all wall/reflect xlo EDGE xhi EDGE
fix ywalls all wall/reflect ylo EDGE yhi EDGE
fix zwalls all wall/reflect zlo EDGE zhi EDGE

#       --- ATOMS PROPRETIES AND FORCE FIELDS ---

# creation of atoms of 2 types in randoms spots
create_atoms    1 random ${atoms} 5783 box
create_atoms    1 random 40 5783 box
Created 40 atoms
  create_atoms CPU = 0.001 seconds
create_atoms    2 random ${atoms} 7483 box
create_atoms    2 random 40 7483 box
Created 40 atoms
  create_atoms CPU = 0.000 seconds

# atoms mass
mass 1 10.948
mass 2 10.467
mass 3 10.578   # new atoms generated by type 1-2 bond

# assing atoms to cerian groups
group g1 type 1
40 atoms in group g1
group g2 type 2
40 atoms in group g2
group agents  union g1 g2
80 atoms in group agents

# force fields style and coefficient
pair_style zero 5.0
pair_coeff * *

# bond style and coefficients
bond_style  harmonic
bond_coeff * 100 1.1

#       --- SIMULATION ---

# set time steps
timestep 0.01   # seconds

# This command sets parameters that affect
# the building of pairwise neighbor lists
neighbor 0.001 bin
neigh_modify every 10 delay 100

# print thermodinamic inf every N timesteps
thermo 100

# fix ID group-ID bond/create Nevery itype jtype Rmin bondtype keyword values
# this fix will attempt to create new bond btw atoms of
# type 1 and 2 every Nevery timestep
fix bonds all bond/create 10 1 2 1.0 1 prob 0.5 85784

# set velocity for all atoms
velocity all create 300.0 4928459 rot yes dist gaussian

# perform plain time integration
# to update position and velocity
# and simulate Brownioan motion
fix 1 all nve
fix 2 all langevin 300.0 300.0 10.0 904297

# compute if atoms has a bonds
# and total number of bonds btw all atoms
compute 1 agents property/atom nbonds
compute 2 agents reduce sum c_1
thermo_style custom step temp pe c_2
run 0
Last active /omp style is bond_style harmonic/omp
Neighbor list info ...
  update every 10 steps, delay 100 steps, check yes
  max neighbors/atom: 2000, page size: 100000
  master list distance cutoff = 5.001
  ghost atom cutoff = 5.001
  binsize = 2.5005, bins = 13 13 13
  2 neighbor lists, perpetual/occasional/extra = 1 1 0
  (1) pair zero, perpetual
      attributes: half, newton on, omp
      pair build: half/bin/newton/omp
      stencil: half/bin/3d/newton
      bin: standard
  (2) fix bond/create, occasional, copy from (1)
      attributes: half, newton on
      pair build: copy
      stencil: none
      bin: none
Per MPI rank memory allocation (min/avg/max) = 20.73 | 20.73 | 20.73 Mbytes
Step Temp PotEng c_2 
       0          300            0            0 
Loop time of 1.272e-06 on 16 procs for 0 steps with 80 atoms

78.6% CPU use with 1 MPI tasks x 16 OpenMP threads

MPI task timing breakdown:
Section |  min time  |  avg time  |  max time  |%varavg| %total
---------------------------------------------------------------
Pair    | 0          | 0          | 0          |   0.0 |  0.00
Bond    | 0          | 0          | 0          |   0.0 |  0.00
Neigh   | 0          | 0          | 0          |   0.0 |  0.00
Comm    | 0          | 0          | 0          |   0.0 |  0.00
Output  | 0          | 0          | 0          |   0.0 |  0.00
Modify  | 0          | 0          | 0          |   0.0 |  0.00
Other   |            | 1.272e-06  |            |       |100.00

Nlocal:        80.0000 ave          80 max          80 min
Histogram: 1 0 0 0 0 0 0 0 0 0
Nghost:        0.00000 ave           0 max           0 min
Histogram: 1 0 0 0 0 0 0 0 0 0
Neighs:        44.0000 ave          44 max          44 min
Histogram: 1 0 0 0 0 0 0 0 0 0

Total # of neighbors = 44
Ave neighs/atom = 0.55
Ave special neighs/atom = 0.0000000
Neighbor list builds = 0
Dangerous builds = 0
# this lines are necessary to insure that the “hasbond” and "newatoms"
# variables are current when the group command invokes it.

# hasbond : boolean = true if atom I has a bond with atom J
variable hasbond atom "c_1 > 0.0"

# bondcounter : int = N total number of bonds in the sim
variable bondcounter equal ceil(c_2)

# print themo info every timestep
thermo_style custom step temp pe v_bondcounter

# dumps atoms information
dump 1 all custom 10 dump.out id x y z type

#       --- LOOP---

label loop
variable step loop ${duration}   # loop length
variable step loop 500   

# create new atoms only if new bonds have been made
# the num of new atoms is linked to the number of new bonds as follow:
variable newatoms equal floor(${bondcounter}/2)
variable newatoms equal floor(0/2)
if "${bondcounter} > 0" then    "fix depositatoms all deposit ${newatoms} 3 1 5748 region box near 2.0"
# fix ID group-ID deposit N type M seed keyword values

# assing all atoms that have a bond to the garbage group
group garbage dynamic all every 1 var hasbond
dynamic group garbage defined

# append new values on dump file
dump_modify 1 append yes

# perform n steps in loop
run 100
Last active /omp style is bond_style harmonic/omp
WARNING: One or more dynamic groups may not be updated at correct point in timestep (src/fix_group.cpp:172)
Per MPI rank memory allocation (min/avg/max) = 22.11 | 22.11 | 22.11 Mbytes
Step Temp PotEng v_bondcounter 
       0          300            0            0 
     100    285.52671    6.4698082            6 
Loop time of 0.020998 on 16 procs for 100 steps with 80 atoms

Performance: 4114669.554 tau/day, 4762.349 timesteps/s
315.0% CPU use with 1 MPI tasks x 16 OpenMP threads

MPI task timing breakdown:
Section |  min time  |  avg time  |  max time  |%varavg| %total
---------------------------------------------------------------
Pair    | 2.6464e-05 | 2.6464e-05 | 2.6464e-05 |   0.0 |  0.13
Bond    | 0.0077466  | 0.0077466  | 0.0077466  |   0.0 | 36.89
Neigh   | 0.00013967 | 0.00013967 | 0.00013967 |   0.0 |  0.67
Comm    | 2.4817e-05 | 2.4817e-05 | 2.4817e-05 |   0.0 |  0.12
Output  | 0.00109    | 0.00109    | 0.00109    |   0.0 |  5.19
Modify  | 0.011845   | 0.011845   | 0.011845   |   0.0 | 56.41
Other   |            | 0.0001256  |            |       |  0.60

Nlocal:        80.0000 ave          80 max          80 min
Histogram: 1 0 0 0 0 0 0 0 0 0
Nghost:        0.00000 ave           0 max           0 min
Histogram: 1 0 0 0 0 0 0 0 0 0
Neighs:        32.0000 ave          32 max          32 min
Histogram: 1 0 0 0 0 0 0 0 0 0

Total # of neighbors = 32
Ave neighs/atom = 0.4
Ave special neighs/atom = 0.075
Neighbor list builds = 3
Dangerous builds = 0

# delate all atoms in garbage
delete_atoms group garbage bond yes mol yes
WARNING: Ignoring 'compress yes' for molecular system (src/delete_atoms.cpp:125)
Deleted 6 atoms, new total = 74
Deleted 3 bonds, new total = 0

# jump to loop lable until step > 0
next step
jump SELF loop
variable step loop ${duration}   # loop length
variable step loop 500   

# create new atoms only if new bonds have been made
# the num of new atoms is linked to the number of new bonds as follow:
variable newatoms equal floor(${bondcounter}/2)
variable newatoms equal floor(6/2)
if "${bondcounter} > 0" then    "fix depositatoms all deposit ${newatoms} 3 1 5748 region box near 2.0"
fix depositatoms all deposit ${newatoms} 3 1 5748 region box near 2.0
fix depositatoms all deposit 3 3 1 5748 region box near 2.0
# fix ID group-ID deposit N type M seed keyword values

# assing all atoms that have a bond to the garbage group
group garbage dynamic all every 1 var hasbond
dynamic group garbage defined

# append new values on dump file
dump_modify 1 append yes

# perform n steps in loop
run 100
Last active /omp style is bond_style harmonic/omp
WARNING: One or more dynamic groups may not be updated at correct point in timestep (src/fix_group.cpp:172)
Per MPI rank memory allocation (min/avg/max) = 28.33 | 28.33 | 28.33 Mbytes
Step Temp PotEng v_bondcounter 
     100     288.1458            0            0 
     200    258.59358            0            0 
Loop time of 0.0166579 on 16 procs for 100 steps with 77 atoms

Performance: 5186731.955 tau/day, 6003.162 timesteps/s
295.7% CPU use with 1 MPI tasks x 16 OpenMP threads

MPI task timing breakdown:
Section |  min time  |  avg time  |  max time  |%varavg| %total
---------------------------------------------------------------
Pair    | 1.2743e-05 | 1.2743e-05 | 1.2743e-05 |   0.0 |  0.08
Bond    | 0.0051222  | 0.0051222  | 0.0051222  |   0.0 | 30.75
Neigh   | 0.00017859 | 0.00017859 | 0.00017859 |   0.0 |  1.07
Comm    | 1.7742e-05 | 1.7742e-05 | 1.7742e-05 |   0.0 |  0.11
Output  | 0.0010637  | 0.0010637  | 0.0010637  |   0.0 |  6.39
Modify  | 0.010034   | 0.010034   | 0.010034   |   0.0 | 60.24
Other   |            | 0.0002286  |            |       |  1.37

Nlocal:        77.0000 ave          77 max          77 min
Histogram: 1 0 0 0 0 0 0 0 0 0
Nghost:        0.00000 ave           0 max           0 min
Histogram: 1 0 0 0 0 0 0 0 0 0
Neighs:        31.0000 ave          31 max          31 min
Histogram: 1 0 0 0 0 0 0 0 0 0

Total # of neighbors = 31
Ave neighs/atom = 0.4025974
Ave special neighs/atom = 0.0000000
Neighbor list builds = 3
Dangerous builds = 0

# delate all atoms in garbage
delete_atoms group garbage bond yes mol yes
WARNING: Ignoring 'compress yes' for molecular system (src/delete_atoms.cpp:125)
Deleted 0 atoms, new total = 77

# jump to loop lable until step > 0
next step
jump SELF loop
variable step loop ${duration}   # loop length
variable step loop 500   

# create new atoms only if new bonds have been made
# the num of new atoms is linked to the number of new bonds as follow:
variable newatoms equal floor(${bondcounter}/2)
variable newatoms equal floor(0/2)
if "${bondcounter} > 0" then    "fix depositatoms all deposit ${newatoms} 3 1 5748 region box near 2.0"
# fix ID group-ID deposit N type M seed keyword values

# assing all atoms that have a bond to the garbage group
group garbage dynamic all every 1 var hasbond
dynamic group garbage defined

# append new values on dump file
dump_modify 1 append yes

# perform n steps in loop
run 100
Last active /omp style is bond_style harmonic/omp
WARNING: One or more dynamic groups may not be updated at correct point in timestep (src/fix_group.cpp:172)
Per MPI rank memory allocation (min/avg/max) = 28.33 | 28.33 | 28.33 Mbytes
Step Temp PotEng v_bondcounter 
     200    248.38594            0            0 
     300    251.57395   0.14965646            2 
Loop time of 0.0172493 on 16 procs for 100 steps with 77 atoms

Performance: 5008907.623 tau/day, 5797.347 timesteps/s
328.5% CPU use with 1 MPI tasks x 16 OpenMP threads

MPI task timing breakdown:
Section |  min time  |  avg time  |  max time  |%varavg| %total
---------------------------------------------------------------
Pair    | 1.2993e-05 | 1.2993e-05 | 1.2993e-05 |   0.0 |  0.08
Bond    | 0.0055884  | 0.0055884  | 0.0055884  |   0.0 | 32.40
Neigh   | 2.5243e-05 | 2.5243e-05 | 2.5243e-05 |   0.0 |  0.15
Comm    | 1.6883e-05 | 1.6883e-05 | 1.6883e-05 |   0.0 |  0.10
Output  | 0.00097992 | 0.00097992 | 0.00097992 |   0.0 |  5.68
Modify  | 0.010568   | 0.010568   | 0.010568   |   0.0 | 61.27
Other   |            | 5.745e-05  |            |       |  0.33

Nlocal:        77.0000 ave          77 max          77 min
Histogram: 1 0 0 0 0 0 0 0 0 0
Nghost:        0.00000 ave           0 max           0 min
Histogram: 1 0 0 0 0 0 0 0 0 0
Neighs:        35.0000 ave          35 max          35 min
Histogram: 1 0 0 0 0 0 0 0 0 0

Total # of neighbors = 35
Ave neighs/atom = 0.45454545
Ave special neighs/atom = 0.025974026
Neighbor list builds = 1
Dangerous builds = 0

# delate all atoms in garbage
delete_atoms group garbage bond yes mol yes
WARNING: Ignoring 'compress yes' for molecular system (src/delete_atoms.cpp:125)
Deleted 2 atoms, new total = 75
Deleted 1 bonds, new total = 0

# jump to loop lable until step > 0
next step
jump SELF loop
variable step loop ${duration}   # loop length
variable step loop 500   

# create new atoms only if new bonds have been made
# the num of new atoms is linked to the number of new bonds as follow:
variable newatoms equal floor(${bondcounter}/2)
variable newatoms equal floor(2/2)
if "${bondcounter} > 0" then    "fix depositatoms all deposit ${newatoms} 3 1 5748 region box near 2.0"
fix depositatoms all deposit ${newatoms} 3 1 5748 region box near 2.0
fix depositatoms all deposit 1 3 1 5748 region box near 2.0
# fix ID group-ID deposit N type M seed keyword values

# assing all atoms that have a bond to the garbage group
group garbage dynamic all every 1 var hasbond
dynamic group garbage defined

# append new values on dump file
dump_modify 1 append yes

# perform n steps in loop
run 100
Last active /omp style is bond_style harmonic/omp
WARNING: One or more dynamic groups may not be updated at correct point in timestep (src/fix_group.cpp:172)
Per MPI rank memory allocation (min/avg/max) = 28.33 | 28.33 | 28.33 Mbytes
Step Temp PotEng v_bondcounter 
     300    252.76978            0            0 
     400    264.01538            0            0 
Loop time of 0.0167725 on 16 procs for 100 steps with 76 atoms

Performance: 5151285.013 tau/day, 5962.135 timesteps/s
277.2% CPU use with 1 MPI tasks x 16 OpenMP threads

MPI task timing breakdown:
Section |  min time  |  avg time  |  max time  |%varavg| %total
---------------------------------------------------------------
Pair    | 1.2037e-05 | 1.2037e-05 | 1.2037e-05 |   0.0 |  0.07
Bond    | 0.0052025  | 0.0052025  | 0.0052025  |   0.0 | 31.02
Neigh   | 2.5682e-05 | 2.5682e-05 | 2.5682e-05 |   0.0 |  0.15
Comm    | 1.7013e-05 | 1.7013e-05 | 1.7013e-05 |   0.0 |  0.10
Output  | 0.00095798 | 0.00095798 | 0.00095798 |   0.0 |  5.71
Modify  | 0.010434   | 0.010434   | 0.010434   |   0.0 | 62.21
Other   |            | 0.0001231  |            |       |  0.73

Nlocal:        76.0000 ave          76 max          76 min
Histogram: 1 0 0 0 0 0 0 0 0 0
Nghost:        0.00000 ave           0 max           0 min
Histogram: 1 0 0 0 0 0 0 0 0 0
Neighs:        34.0000 ave          34 max          34 min
Histogram: 1 0 0 0 0 0 0 0 0 0

Total # of neighbors = 34
Ave neighs/atom = 0.44736842
Ave special neighs/atom = 0.0000000
Neighbor list builds = 1
Dangerous builds = 0

# delate all atoms in garbage
delete_atoms group garbage bond yes mol yes
WARNING: Ignoring 'compress yes' for molecular system (src/delete_atoms.cpp:125)
Deleted 0 atoms, new total = 76

# jump to loop lable until step > 0
next step
jump SELF loop
variable step loop ${duration}   # loop length
variable step loop 500   

# create new atoms only if new bonds have been made
# the num of new atoms is linked to the number of new bonds as follow:
variable newatoms equal floor(${bondcounter}/2)
variable newatoms equal floor(0/2)
if "${bondcounter} > 0" then    "fix depositatoms all deposit ${newatoms} 3 1 5748 region box near 2.0"
# fix ID group-ID deposit N type M seed keyword values

# assing all atoms that have a bond to the garbage group
group garbage dynamic all every 1 var hasbond
dynamic group garbage defined

# append new values on dump file
dump_modify 1 append yes

# perform n steps in loop
run 100
Last active /omp style is bond_style harmonic/omp
WARNING: One or more dynamic groups may not be updated at correct point in timestep (src/fix_group.cpp:172)
Per MPI rank memory allocation (min/avg/max) = 28.33 | 28.33 | 28.33 Mbytes
Step Temp PotEng v_bondcounter 
     400    260.49518            0            0 
     500    262.62641            0            0 
Loop time of 0.0154816 on 16 procs for 100 steps with 76 atoms

Performance: 5580804.101 tau/day, 6459.264 timesteps/s
359.1% CPU use with 1 MPI tasks x 16 OpenMP threads

MPI task timing breakdown:
Section |  min time  |  avg time  |  max time  |%varavg| %total
---------------------------------------------------------------
Pair    | 1.1375e-05 | 1.1375e-05 | 1.1375e-05 |   0.0 |  0.07
Bond    | 0.0053578  | 0.0053578  | 0.0053578  |   0.0 | 34.61
Neigh   | 2.9856e-05 | 2.9856e-05 | 2.9856e-05 |   0.0 |  0.19
Comm    | 1.6339e-05 | 1.6339e-05 | 1.6339e-05 |   0.0 |  0.11
Output  | 0.0010091  | 0.0010091  | 0.0010091  |   0.0 |  6.52
Modify  | 0.0090102  | 0.0090102  | 0.0090102  |   0.0 | 58.20
Other   |            | 4.693e-05  |            |       |  0.30

Nlocal:        76.0000 ave          76 max          76 min
Histogram: 1 0 0 0 0 0 0 0 0 0
Nghost:        0.00000 ave           0 max           0 min
Histogram: 1 0 0 0 0 0 0 0 0 0
Neighs:        48.0000 ave          48 max          48 min
Histogram: 1 0 0 0 0 0 0 0 0 0

Total # of neighbors = 48
Ave neighs/atom = 0.63157895
Ave special neighs/atom = 0.0000000
Neighbor list builds = 1
Dangerous builds = 1

# delate all atoms in garbage
delete_atoms group garbage bond yes mol yes
WARNING: Ignoring 'compress yes' for molecular system (src/delete_atoms.cpp:125)
Deleted 0 atoms, new total = 76

# jump to loop lable until step > 0
next step
jump SELF loop
variable step loop ${duration}   # loop length
variable step loop 500   

# create new atoms only if new bonds have been made
# the num of new atoms is linked to the number of new bonds as follow:
variable newatoms equal floor(${bondcounter}/2)
variable newatoms equal floor(0/2)
if "${bondcounter} > 0" then    "fix depositatoms all deposit ${newatoms} 3 1 5748 region box near 2.0"
# fix ID group-ID deposit N type M seed keyword values

# assing all atoms that have a bond to the garbage group
group garbage dynamic all every 1 var hasbond
dynamic group garbage defined

# append new values on dump file
dump_modify 1 append yes

# perform n steps in loop
run 100
Last active /omp style is bond_style harmonic/omp
WARNING: One or more dynamic groups may not be updated at correct point in timestep (src/fix_group.cpp:172)
Per MPI rank memory allocation (min/avg/max) = 28.33 | 28.33 | 28.33 Mbytes
Step Temp PotEng v_bondcounter 
     500    262.62641            0            0 
     600    294.16432     0.150792            4 
Loop time of 0.0162094 on 16 procs for 100 steps with 76 atoms

Performance: 5330249.028 tau/day, 6169.270 timesteps/s
389.1% CPU use with 1 MPI tasks x 16 OpenMP threads

MPI task timing breakdown:
Section |  min time  |  avg time  |  max time  |%varavg| %total
---------------------------------------------------------------
Pair    | 1.4302e-05 | 1.4302e-05 | 1.4302e-05 |   0.0 |  0.09
Bond    | 0.006003   | 0.006003   | 0.006003   |   0.0 | 37.03
Neigh   | 6.6139e-05 | 6.6139e-05 | 6.6139e-05 |   0.0 |  0.41
Comm    | 1.9263e-05 | 1.9263e-05 | 1.9263e-05 |   0.0 |  0.12
Output  | 0.0009461  | 0.0009461  | 0.0009461  |   0.0 |  5.84
Modify  | 0.0090901  | 0.0090901  | 0.0090901  |   0.0 | 56.08
Other   |            | 7.047e-05  |            |       |  0.43

Nlocal:        76.0000 ave          76 max          76 min
Histogram: 1 0 0 0 0 0 0 0 0 0
Nghost:        0.00000 ave           0 max           0 min
Histogram: 1 0 0 0 0 0 0 0 0 0
Neighs:        32.0000 ave          32 max          32 min
Histogram: 1 0 0 0 0 0 0 0 0 0

Total # of neighbors = 32
Ave neighs/atom = 0.42105263
Ave special neighs/atom = 0.052631579
Neighbor list builds = 2
Dangerous builds = 0

# delate all atoms in garbage
delete_atoms group garbage bond yes mol yes
WARNING: Ignoring 'compress yes' for molecular system (src/delete_atoms.cpp:125)
Deleted 4 atoms, new total = 72
Deleted 2 bonds, new total = 0

# jump to loop lable until step > 0
next step
jump SELF loop
variable step loop ${duration}   # loop length
variable step loop 500   

# create new atoms only if new bonds have been made
# the num of new atoms is linked to the number of new bonds as follow:
variable newatoms equal floor(${bondcounter}/2)
variable newatoms equal floor(4/2)
if "${bondcounter} > 0" then    "fix depositatoms all deposit ${newatoms} 3 1 5748 region box near 2.0"
fix depositatoms all deposit ${newatoms} 3 1 5748 region box near 2.0
fix depositatoms all deposit 2 3 1 5748 region box near 2.0
# fix ID group-ID deposit N type M seed keyword values

# assing all atoms that have a bond to the garbage group
group garbage dynamic all every 1 var hasbond
dynamic group garbage defined

# append new values on dump file
dump_modify 1 append yes

# perform n steps in loop
run 100
Last active /omp style is bond_style harmonic/omp
WARNING: One or more dynamic groups may not be updated at correct point in timestep (src/fix_group.cpp:172)
Per MPI rank memory allocation (min/avg/max) = 28.33 | 28.33 | 28.33 Mbytes
Step Temp PotEng v_bondcounter 
     600    303.32025            0            0 
     700    346.67343  0.041274585            2 
Loop time of 0.0154825 on 16 procs for 100 steps with 74 atoms

Performance: 5580503.838 tau/day, 6458.916 timesteps/s
408.8% CPU use with 1 MPI tasks x 16 OpenMP threads

MPI task timing breakdown:
Section |  min time  |  avg time  |  max time  |%varavg| %total
---------------------------------------------------------------
Pair    | 1.2518e-05 | 1.2518e-05 | 1.2518e-05 |   0.0 |  0.08
Bond    | 0.0050777  | 0.0050777  | 0.0050777  |   0.0 | 32.80
Neigh   | 7.935e-05  | 7.935e-05  | 7.935e-05  |   0.0 |  0.51
Comm    | 1.7983e-05 | 1.7983e-05 | 1.7983e-05 |   0.0 |  0.12
Output  | 0.00096055 | 0.00096055 | 0.00096055 |   0.0 |  6.20
Modify  | 0.0091219  | 0.0091219  | 0.0091219  |   0.0 | 58.92
Other   |            | 0.0002125  |            |       |  1.37

Nlocal:        74.0000 ave          74 max          74 min
Histogram: 1 0 0 0 0 0 0 0 0 0
Nghost:        0.00000 ave           0 max           0 min
Histogram: 1 0 0 0 0 0 0 0 0 0
Neighs:        48.0000 ave          48 max          48 min
Histogram: 1 0 0 0 0 0 0 0 0 0

Total # of neighbors = 48
Ave neighs/atom = 0.64864865
Ave special neighs/atom = 0.027027027
Neighbor list builds = 3
Dangerous builds = 0

# delate all atoms in garbage
delete_atoms group garbage bond yes mol yes
WARNING: Ignoring 'compress yes' for molecular system (src/delete_atoms.cpp:125)
Deleted 2 atoms, new total = 72
Deleted 1 bonds, new total = 0

# jump to loop lable until step > 0
next step
jump SELF loop
variable step loop ${duration}   # loop length
variable step loop 500   

# create new atoms only if new bonds have been made
# the num of new atoms is linked to the number of new bonds as follow:
variable newatoms equal floor(${bondcounter}/2)
variable newatoms equal floor(2/2)
if "${bondcounter} > 0" then    "fix depositatoms all deposit ${newatoms} 3 1 5748 region box near 2.0"
fix depositatoms all deposit ${newatoms} 3 1 5748 region box near 2.0
fix depositatoms all deposit 1 3 1 5748 region box near 2.0
# fix ID group-ID deposit N type M seed keyword values

# assing all atoms that have a bond to the garbage group
group garbage dynamic all every 1 var hasbond
dynamic group garbage defined

# append new values on dump file
dump_modify 1 append yes

# perform n steps in loop
run 100
Last active /omp style is bond_style harmonic/omp
WARNING: One or more dynamic groups may not be updated at correct point in timestep (src/fix_group.cpp:172)
Per MPI rank memory allocation (min/avg/max) = 28.33 | 28.33 | 28.33 Mbytes
Step Temp PotEng v_bondcounter 
     700    336.75113            0            0 
     800    344.29433            0            0 
Loop time of 0.0163461 on 16 procs for 100 steps with 73 atoms

Performance: 5285678.375 tau/day, 6117.683 timesteps/s
283.5% CPU use with 1 MPI tasks x 16 OpenMP threads

MPI task timing breakdown:
Section |  min time  |  avg time  |  max time  |%varavg| %total
---------------------------------------------------------------
Pair    | 1.3509e-05 | 1.3509e-05 | 1.3509e-05 |   0.0 |  0.08
Bond    | 0.0048993  | 0.0048993  | 0.0048993  |   0.0 | 29.97
Neigh   | 2.7855e-05 | 2.7855e-05 | 2.7855e-05 |   0.0 |  0.17
Comm    | 1.7695e-05 | 1.7695e-05 | 1.7695e-05 |   0.0 |  0.11
Output  | 0.001038   | 0.001038   | 0.001038   |   0.0 |  6.35
Modify  | 0.010244   | 0.010244   | 0.010244   |   0.0 | 62.67
Other   |            | 0.0001055  |            |       |  0.65

Nlocal:        73.0000 ave          73 max          73 min
Histogram: 1 0 0 0 0 0 0 0 0 0
Nghost:        0.00000 ave           0 max           0 min
Histogram: 1 0 0 0 0 0 0 0 0 0
Neighs:        47.0000 ave          47 max          47 min
Histogram: 1 0 0 0 0 0 0 0 0 0

Total # of neighbors = 47
Ave neighs/atom = 0.64383562
Ave special neighs/atom = 0.0000000
Neighbor list builds = 1
Dangerous builds = 0

# delate all atoms in garbage
delete_atoms group garbage bond yes mol yes
WARNING: Ignoring 'compress yes' for molecular system (src/delete_atoms.cpp:125)
Deleted 0 atoms, new total = 73

# jump to loop lable until step > 0
next step
jump SELF loop
variable step loop ${duration}   # loop length
variable step loop 500   

# create new atoms only if new bonds have been made
# the num of new atoms is linked to the number of new bonds as follow:
variable newatoms equal floor(${bondcounter}/2)
variable newatoms equal floor(0/2)
if "${bondcounter} > 0" then    "fix depositatoms all deposit ${newatoms} 3 1 5748 region box near 2.0"
# fix ID group-ID deposit N type M seed keyword values

# assing all atoms that have a bond to the garbage group
group garbage dynamic all every 1 var hasbond
dynamic group garbage defined

# append new values on dump file
dump_modify 1 append yes

# perform n steps in loop
run 100
Last active /omp style is bond_style harmonic/omp
WARNING: One or more dynamic groups may not be updated at correct point in timestep (src/fix_group.cpp:172)
Per MPI rank memory allocation (min/avg/max) = 28.33 | 28.33 | 28.33 Mbytes
Step Temp PotEng v_bondcounter 
     800    339.51246            0            0 
     900      321.886    2.1121146            4 
Loop time of 0.0161609 on 16 procs for 100 steps with 73 atoms

Performance: 5346239.552 tau/day, 6187.777 timesteps/s
341.4% CPU use with 1 MPI tasks x 16 OpenMP threads

MPI task timing breakdown:
Section |  min time  |  avg time  |  max time  |%varavg| %total
---------------------------------------------------------------
Pair    | 1.2419e-05 | 1.2419e-05 | 1.2419e-05 |   0.0 |  0.08
Bond    | 0.0049348  | 0.0049348  | 0.0049348  |   0.0 | 30.54
Neigh   | 9.3332e-05 | 9.3332e-05 | 9.3332e-05 |   0.0 |  0.58
Comm    | 1.8331e-05 | 1.8331e-05 | 1.8331e-05 |   0.0 |  0.11
Output  | 0.0009488  | 0.0009488  | 0.0009488  |   0.0 |  5.87
Modify  | 0.010087   | 0.010087   | 0.010087   |   0.0 | 62.42
Other   |            | 6.593e-05  |            |       |  0.41

Nlocal:        73.0000 ave          73 max          73 min
Histogram: 1 0 0 0 0 0 0 0 0 0
Nghost:        0.00000 ave           0 max           0 min
Histogram: 1 0 0 0 0 0 0 0 0 0
Neighs:        39.0000 ave          39 max          39 min
Histogram: 1 0 0 0 0 0 0 0 0 0

Total # of neighbors = 39
Ave neighs/atom = 0.53424658
Ave special neighs/atom = 0.054794521
Neighbor list builds = 2
Dangerous builds = 0

# delate all atoms in garbage
delete_atoms group garbage bond yes mol yes
WARNING: Ignoring 'compress yes' for molecular system (src/delete_atoms.cpp:125)
Deleted 4 atoms, new total = 69
Deleted 2 bonds, new total = 0

# jump to loop lable until step > 0
next step
jump SELF loop
variable step loop ${duration}   # loop length
variable step loop 500   

# create new atoms only if new bonds have been made
# the num of new atoms is linked to the number of new bonds as follow:
variable newatoms equal floor(${bondcounter}/2)
variable newatoms equal floor(4/2)
if "${bondcounter} > 0" then    "fix depositatoms all deposit ${newatoms} 3 1 5748 region box near 2.0"
fix depositatoms all deposit ${newatoms} 3 1 5748 region box near 2.0
fix depositatoms all deposit 2 3 1 5748 region box near 2.0
# fix ID group-ID deposit N type M seed keyword values

# assing all atoms that have a bond to the garbage group
group garbage dynamic all every 1 var hasbond
dynamic group garbage defined

# append new values on dump file
dump_modify 1 append yes

# perform n steps in loop
run 100
Last active /omp style is bond_style harmonic/omp
WARNING: One or more dynamic groups may not be updated at correct point in timestep (src/fix_group.cpp:172)
Per MPI rank memory allocation (min/avg/max) = 28.33 | 28.33 | 28.33 Mbytes
Step Temp PotEng v_bondcounter 
     900    326.21913            0            0 
    1000     305.9427            0            0 
Loop time of 0.0160601 on 16 procs for 100 steps with 71 atoms

Performance: 5379797.515 tau/day, 6226.617 timesteps/s
446.8% CPU use with 1 MPI tasks x 16 OpenMP threads

MPI task timing breakdown:
Section |  min time  |  avg time  |  max time  |%varavg| %total
---------------------------------------------------------------
Pair    | 1.1945e-05 | 1.1945e-05 | 1.1945e-05 |   0.0 |  0.07
Bond    | 0.005765   | 0.005765   | 0.005765   |   0.0 | 35.90
Neigh   | 5.3061e-05 | 5.3061e-05 | 5.3061e-05 |   0.0 |  0.33
Comm    | 1.6382e-05 | 1.6382e-05 | 1.6382e-05 |   0.0 |  0.10
Output  | 0.00098357 | 0.00098357 | 0.00098357 |   0.0 |  6.12
Modify  | 0.0090051  | 0.0090051  | 0.0090051  |   0.0 | 56.07
Other   |            | 0.000225   |            |       |  1.40

Nlocal:        71.0000 ave          71 max          71 min
Histogram: 1 0 0 0 0 0 0 0 0 0
Nghost:        0.00000 ave           0 max           0 min
Histogram: 1 0 0 0 0 0 0 0 0 0
Neighs:        37.0000 ave          37 max          37 min
Histogram: 1 0 0 0 0 0 0 0 0 0

Total # of neighbors = 37
Ave neighs/atom = 0.52112676
Ave special neighs/atom = 0.0000000
Neighbor list builds = 2
Dangerous builds = 0

# delate all atoms in garbage
delete_atoms group garbage bond yes mol yes
WARNING: Ignoring 'compress yes' for molecular system (src/delete_atoms.cpp:125)
Deleted 0 atoms, new total = 71

# jump to loop lable until step > 0
next step
jump SELF loop
variable step loop ${duration}   # loop length
variable step loop 500   

# create new atoms only if new bonds have been made
# the num of new atoms is linked to the number of new bonds as follow:
variable newatoms equal floor(${bondcounter}/2)
variable newatoms equal floor(0/2)
if "${bondcounter} > 0" then    "fix depositatoms all deposit ${newatoms} 3 1 5748 region box near 2.0"
# fix ID group-ID deposit N type M seed keyword values

# assing all atoms that have a bond to the garbage group
group garbage dynamic all every 1 var hasbond
dynamic group garbage defined

# append new values on dump file
dump_modify 1 append yes

# perform n steps in loop
run 100
Last active /omp style is bond_style harmonic/omp
WARNING: One or more dynamic groups may not be updated at correct point in timestep (src/fix_group.cpp:172)
Per MPI rank memory allocation (min/avg/max) = 28.33 | 28.33 | 28.33 Mbytes
Step Temp PotEng v_bondcounter 
    1000    297.20148            0            0 
    1100    302.55666            0            0 
Loop time of 0.0160744 on 16 procs for 100 steps with 71 atoms

Performance: 5375005.552 tau/day, 6221.071 timesteps/s
381.7% CPU use with 1 MPI tasks x 16 OpenMP threads

MPI task timing breakdown:
Section |  min time  |  avg time  |  max time  |%varavg| %total
---------------------------------------------------------------
Pair    | 1.3086e-05 | 1.3086e-05 | 1.3086e-05 |   0.0 |  0.08
Bond    | 0.0053764  | 0.0053764  | 0.0053764  |   0.0 | 33.45
Neigh   | 4.317e-05  | 4.317e-05  | 4.317e-05  |   0.0 |  0.27
Comm    | 1.7539e-05 | 1.7539e-05 | 1.7539e-05 |   0.0 |  0.11
Output  | 0.00090595 | 0.00090595 | 0.00090595 |   0.0 |  5.64
Modify  | 0.0096696  | 0.0096696  | 0.0096696  |   0.0 | 60.16
Other   |            | 4.871e-05  |            |       |  0.30

Nlocal:        71.0000 ave          71 max          71 min
Histogram: 1 0 0 0 0 0 0 0 0 0
Nghost:        0.00000 ave           0 max           0 min
Histogram: 1 0 0 0 0 0 0 0 0 0
Neighs:        27.0000 ave          27 max          27 min
Histogram: 1 0 0 0 0 0 0 0 0 0

Total # of neighbors = 27
Ave neighs/atom = 0.38028169
Ave special neighs/atom = 0.0000000
Neighbor list builds = 1
Dangerous builds = 1

# delate all atoms in garbage
delete_atoms group garbage bond yes mol yes
WARNING: Ignoring 'compress yes' for molecular system (src/delete_atoms.cpp:125)
Deleted 0 atoms, new total = 71

# jump to loop lable until step > 0
next step
jump SELF loop
variable step loop ${duration}   # loop length
variable step loop 500   

# create new atoms only if new bonds have been made
# the num of new atoms is linked to the number of new bonds as follow:
variable newatoms equal floor(${bondcounter}/2)
variable newatoms equal floor(0/2)
if "${bondcounter} > 0" then    "fix depositatoms all deposit ${newatoms} 3 1 5748 region box near 2.0"
# fix ID group-ID deposit N type M seed keyword values

# assing all atoms that have a bond to the garbage group
group garbage dynamic all every 1 var hasbond
dynamic group garbage defined

# append new values on dump file
dump_modify 1 append yes

# perform n steps in loop
run 100
Last active /omp style is bond_style harmonic/omp
WARNING: One or more dynamic groups may not be updated at correct point in timestep (src/fix_group.cpp:172)
Per MPI rank memory allocation (min/avg/max) = 28.33 | 28.33 | 28.33 Mbytes
Step Temp PotEng v_bondcounter 
    1100    302.55666            0            0 
    1200    303.67217            0            0 
Loop time of 0.0169086 on 16 procs for 100 steps with 71 atoms

Performance: 5109821.236 tau/day, 5914.145 timesteps/s
392.5% CPU use with 1 MPI tasks x 16 OpenMP threads

MPI task timing breakdown:
Section |  min time  |  avg time  |  max time  |%varavg| %total
---------------------------------------------------------------
Pair    | 1.3287e-05 | 1.3287e-05 | 1.3287e-05 |   0.0 |  0.08
Bond    | 0.0046767  | 0.0046767  | 0.0046767  |   0.0 | 27.66
Neigh   | 3.2606e-05 | 3.2606e-05 | 3.2606e-05 |   0.0 |  0.19
Comm    | 2.0458e-05 | 2.0458e-05 | 2.0458e-05 |   0.0 |  0.12
Output  | 0.00093948 | 0.00093948 | 0.00093948 |   0.0 |  5.56
Modify  | 0.011178   | 0.011178   | 0.011178   |   0.0 | 66.11
Other   |            | 4.766e-05  |            |       |  0.28

Nlocal:        71.0000 ave          71 max          71 min
Histogram: 1 0 0 0 0 0 0 0 0 0
Nghost:        0.00000 ave           0 max           0 min
Histogram: 1 0 0 0 0 0 0 0 0 0
Neighs:        49.0000 ave          49 max          49 min
Histogram: 1 0 0 0 0 0 0 0 0 0

Total # of neighbors = 49
Ave neighs/atom = 0.69014085
Ave special neighs/atom = 0.0000000
Neighbor list builds = 1
Dangerous builds = 1

# delate all atoms in garbage
delete_atoms group garbage bond yes mol yes
WARNING: Ignoring 'compress yes' for molecular system (src/delete_atoms.cpp:125)
Deleted 0 atoms, new total = 71

# jump to loop lable until step > 0
next step
jump SELF loop
variable step loop ${duration}   # loop length
variable step loop 500   

# create new atoms only if new bonds have been made
# the num of new atoms is linked to the number of new bonds as follow:
variable newatoms equal floor(${bondcounter}/2)
variable newatoms equal floor(0/2)
if "${bondcounter} > 0" then    "fix depositatoms all deposit ${newatoms} 3 1 5748 region box near 2.0"
# fix ID group-ID deposit N type M seed keyword values

# assing all atoms that have a bond to the garbage group
group garbage dynamic all every 1 var hasbond
dynamic group garbage defined

# append new values on dump file
dump_modify 1 append yes

# perform n steps in loop
run 100
Last active /omp style is bond_style harmonic/omp
WARNING: One or more dynamic groups may not be updated at correct point in timestep (src/fix_group.cpp:172)
Per MPI rank memory allocation (min/avg/max) = 28.33 | 28.33 | 28.33 Mbytes
Step Temp PotEng v_bondcounter 
    1200    303.67217            0            0 
    1300    315.98949    1.1174352            2 
Loop time of 0.0153989 on 16 procs for 100 steps with 71 atoms

Performance: 5610806.049 tau/day, 6493.988 timesteps/s
381.1% CPU use with 1 MPI tasks x 16 OpenMP threads

MPI task timing breakdown:
Section |  min time  |  avg time  |  max time  |%varavg| %total
---------------------------------------------------------------
Pair    | 1.1912e-05 | 1.1912e-05 | 1.1912e-05 |   0.0 |  0.08
Bond    | 0.0046405  | 0.0046405  | 0.0046405  |   0.0 | 30.14
Neigh   | 2.5897e-05 | 2.5897e-05 | 2.5897e-05 |   0.0 |  0.17
Comm    | 1.654e-05  | 1.654e-05  | 1.654e-05  |   0.0 |  0.11
Output  | 0.00096682 | 0.00096682 | 0.00096682 |   0.0 |  6.28
Modify  | 0.0096887  | 0.0096887  | 0.0096887  |   0.0 | 62.92
Other   |            | 4.846e-05  |            |       |  0.31

Nlocal:        71.0000 ave          71 max          71 min
Histogram: 1 0 0 0 0 0 0 0 0 0
Nghost:        0.00000 ave           0 max           0 min
Histogram: 1 0 0 0 0 0 0 0 0 0
Neighs:        44.0000 ave          44 max          44 min
Histogram: 1 0 0 0 0 0 0 0 0 0

Total # of neighbors = 44
Ave neighs/atom = 0.61971831
Ave special neighs/atom = 0.028169014
Neighbor list builds = 1
Dangerous builds = 0

# delate all atoms in garbage
delete_atoms group garbage bond yes mol yes
WARNING: Ignoring 'compress yes' for molecular system (src/delete_atoms.cpp:125)
Deleted 2 atoms, new total = 69
Deleted 1 bonds, new total = 0

# jump to loop lable until step > 0
next step
jump SELF loop
variable step loop ${duration}   # loop length
variable step loop 500   

# create new atoms only if new bonds have been made
# the num of new atoms is linked to the number of new bonds as follow:
variable newatoms equal floor(${bondcounter}/2)
variable newatoms equal floor(2/2)
if "${bondcounter} > 0" then    "fix depositatoms all deposit ${newatoms} 3 1 5748 region box near 2.0"
fix depositatoms all deposit ${newatoms} 3 1 5748 region box near 2.0
fix depositatoms all deposit 1 3 1 5748 region box near 2.0
# fix ID group-ID deposit N type M seed keyword values

# assing all atoms that have a bond to the garbage group
group garbage dynamic all every 1 var hasbond
dynamic group garbage defined

# append new values on dump file
dump_modify 1 append yes

# perform n steps in loop
run 100
Last active /omp style is bond_style harmonic/omp
WARNING: One or more dynamic groups may not be updated at correct point in timestep (src/fix_group.cpp:172)
Per MPI rank memory allocation (min/avg/max) = 28.33 | 28.33 | 28.33 Mbytes
Step Temp PotEng v_bondcounter 
    1300    320.55477            0            0 
    1400    323.22696            0            0 
Loop time of 0.0167166 on 16 procs for 100 steps with 70 atoms

Performance: 5168516.675 tau/day, 5982.079 timesteps/s
362.0% CPU use with 1 MPI tasks x 16 OpenMP threads

MPI task timing breakdown:
Section |  min time  |  avg time  |  max time  |%varavg| %total
---------------------------------------------------------------
Pair    | 1.1475e-05 | 1.1475e-05 | 1.1475e-05 |   0.0 |  0.07
Bond    | 0.0046074  | 0.0046074  | 0.0046074  |   0.0 | 27.56
Neigh   | 4.1414e-05 | 4.1414e-05 | 4.1414e-05 |   0.0 |  0.25
Comm    | 1.6213e-05 | 1.6213e-05 | 1.6213e-05 |   0.0 |  0.10
Output  | 0.00092126 | 0.00092126 | 0.00092126 |   0.0 |  5.51
Modify  | 0.010979   | 0.010979   | 0.010979   |   0.0 | 65.68
Other   |            | 0.0001395  |            |       |  0.83

Nlocal:        70.0000 ave          70 max          70 min
Histogram: 1 0 0 0 0 0 0 0 0 0
Nghost:        0.00000 ave           0 max           0 min
Histogram: 1 0 0 0 0 0 0 0 0 0
Neighs:        26.0000 ave          26 max          26 min
Histogram: 1 0 0 0 0 0 0 0 0 0

Total # of neighbors = 26
Ave neighs/atom = 0.37142857
Ave special neighs/atom = 0.0000000
Neighbor list builds = 1
Dangerous builds = 0

# delate all atoms in garbage
delete_atoms group garbage bond yes mol yes
WARNING: Ignoring 'compress yes' for molecular system (src/delete_atoms.cpp:125)
Deleted 0 atoms, new total = 70

# jump to loop lable until step > 0
next step
jump SELF loop
variable step loop ${duration}   # loop length
variable step loop 500   

# create new atoms only if new bonds have been made
# the num of new atoms is linked to the number of new bonds as follow:
variable newatoms equal floor(${bondcounter}/2)
variable newatoms equal floor(0/2)
if "${bondcounter} > 0" then    "fix depositatoms all deposit ${newatoms} 3 1 5748 region box near 2.0"
# fix ID group-ID deposit N type M seed keyword values

# assing all atoms that have a bond to the garbage group
group garbage dynamic all every 1 var hasbond
dynamic group garbage defined

# append new values on dump file
dump_modify 1 append yes

# perform n steps in loop
run 100
Last active /omp style is bond_style harmonic/omp
WARNING: One or more dynamic groups may not be updated at correct point in timestep (src/fix_group.cpp:172)
Per MPI rank memory allocation (min/avg/max) = 28.33 | 28.33 | 28.33 Mbytes
Step Temp PotEng v_bondcounter 
    1400    318.54252            0            0 
    1500    294.53489            0            0 
Loop time of 0.0154578 on 16 procs for 100 steps with 70 atoms

Performance: 5589396.346 tau/day, 6469.209 timesteps/s
398.1% CPU use with 1 MPI tasks x 16 OpenMP threads

MPI task timing breakdown:
Section |  min time  |  avg time  |  max time  |%varavg| %total
---------------------------------------------------------------
Pair    | 1.2459e-05 | 1.2459e-05 | 1.2459e-05 |   0.0 |  0.08
Bond    | 0.0050421  | 0.0050421  | 0.0050421  |   0.0 | 32.62
Neigh   | 2.2549e-05 | 2.2549e-05 | 2.2549e-05 |   0.0 |  0.15
Comm    | 1.8319e-05 | 1.8319e-05 | 1.8319e-05 |   0.0 |  0.12
Output  | 0.00099497 | 0.00099497 | 0.00099497 |   0.0 |  6.44
Modify  | 0.0093165  | 0.0093165  | 0.0093165  |   0.0 | 60.27
Other   |            | 5.096e-05  |            |       |  0.33

Nlocal:        70.0000 ave          70 max          70 min
Histogram: 1 0 0 0 0 0 0 0 0 0
Nghost:        0.00000 ave           0 max           0 min
Histogram: 1 0 0 0 0 0 0 0 0 0
Neighs:        32.0000 ave          32 max          32 min
Histogram: 1 0 0 0 0 0 0 0 0 0

Total # of neighbors = 32
Ave neighs/atom = 0.45714286
Ave special neighs/atom = 0.0000000
Neighbor list builds = 1
Dangerous builds = 1

# delate all atoms in garbage
delete_atoms group garbage bond yes mol yes
WARNING: Ignoring 'compress yes' for molecular system (src/delete_atoms.cpp:125)
Deleted 0 atoms, new total = 70

# jump to loop lable until step > 0
next step
jump SELF loop
variable step loop ${duration}   # loop length
variable step loop 500   

# create new atoms only if new bonds have been made
# the num of new atoms is linked to the number of new bonds as follow:
variable newatoms equal floor(${bondcounter}/2)
variable newatoms equal floor(0/2)
if "${bondcounter} > 0" then    "fix depositatoms all deposit ${newatoms} 3 1 5748 region box near 2.0"
# fix ID group-ID deposit N type M seed keyword values

# assing all atoms that have a bond to the garbage group
group garbage dynamic all every 1 var hasbond
dynamic group garbage defined

# append new values on dump file
dump_modify 1 append yes

# perform n steps in loop
run 100
Last active /omp style is bond_style harmonic/omp
WARNING: One or more dynamic groups may not be updated at correct point in timestep (src/fix_group.cpp:172)
Per MPI rank memory allocation (min/avg/max) = 28.33 | 28.33 | 28.33 Mbytes
Step Temp PotEng v_bondcounter 
    1500    294.53489            0            0 
    1600    317.63274            0            0 
Loop time of 0.0162389 on 16 procs for 100 steps with 70 atoms

Performance: 5320566.273 tau/day, 6158.063 timesteps/s
385.4% CPU use with 1 MPI tasks x 16 OpenMP threads

MPI task timing breakdown:
Section |  min time  |  avg time  |  max time  |%varavg| %total
---------------------------------------------------------------
Pair    | 2.4206e-05 | 2.4206e-05 | 2.4206e-05 |   0.0 |  0.15
Bond    | 0.005086   | 0.005086   | 0.005086   |   0.0 | 31.32
Neigh   | 2.9767e-05 | 2.9767e-05 | 2.9767e-05 |   0.0 |  0.18
Comm    | 1.9095e-05 | 1.9095e-05 | 1.9095e-05 |   0.0 |  0.12
Output  | 0.00096893 | 0.00096893 | 0.00096893 |   0.0 |  5.97
Modify  | 0.010062   | 0.010062   | 0.010062   |   0.0 | 61.96
Other   |            | 4.879e-05  |            |       |  0.30

Nlocal:        70.0000 ave          70 max          70 min
Histogram: 1 0 0 0 0 0 0 0 0 0
Nghost:        0.00000 ave           0 max           0 min
Histogram: 1 0 0 0 0 0 0 0 0 0
Neighs:        26.0000 ave          26 max          26 min
Histogram: 1 0 0 0 0 0 0 0 0 0

Total # of neighbors = 26
Ave neighs/atom = 0.37142857
Ave special neighs/atom = 0.0000000
Neighbor list builds = 1
Dangerous builds = 1

# delate all atoms in garbage
delete_atoms group garbage bond yes mol yes
WARNING: Ignoring 'compress yes' for molecular system (src/delete_atoms.cpp:125)
Deleted 0 atoms, new total = 70

# jump to loop lable until step > 0
next step
jump SELF loop
variable step loop ${duration}   # loop length
variable step loop 500   

# create new atoms only if new bonds have been made
# the num of new atoms is linked to the number of new bonds as follow:
variable newatoms equal floor(${bondcounter}/2)
variable newatoms equal floor(0/2)
if "${bondcounter} > 0" then    "fix depositatoms all deposit ${newatoms} 3 1 5748 region box near 2.0"
# fix ID group-ID deposit N type M seed keyword values

# assing all atoms that have a bond to the garbage group
group garbage dynamic all every 1 var hasbond
dynamic group garbage defined

# append new values on dump file
dump_modify 1 append yes

# perform n steps in loop
run 100
Last active /omp style is bond_style harmonic/omp
WARNING: One or more dynamic groups may not be updated at correct point in timestep (src/fix_group.cpp:172)
Per MPI rank memory allocation (min/avg/max) = 28.33 | 28.33 | 28.33 Mbytes
Step Temp PotEng v_bondcounter 
    1600    317.63274            0            0 
    1700    308.20012    1.4390441            4 
Loop time of 0.0149582 on 16 procs for 100 steps with 70 atoms

Performance: 5776086.787 tau/day, 6685.286 timesteps/s
411.0% CPU use with 1 MPI tasks x 16 OpenMP threads

MPI task timing breakdown:
Section |  min time  |  avg time  |  max time  |%varavg| %total
---------------------------------------------------------------
Pair    | 1.1606e-05 | 1.1606e-05 | 1.1606e-05 |   0.0 |  0.08
Bond    | 0.0047568  | 0.0047568  | 0.0047568  |   0.0 | 31.80
Neigh   | 5.7948e-05 | 5.7948e-05 | 5.7948e-05 |   0.0 |  0.39
Comm    | 1.9713e-05 | 1.9713e-05 | 1.9713e-05 |   0.0 |  0.13
Output  | 0.00089985 | 0.00089985 | 0.00089985 |   0.0 |  6.02
Modify  | 0.0091483  | 0.0091483  | 0.0091483  |   0.0 | 61.16
Other   |            | 6.4e-05    |            |       |  0.43

Nlocal:        70.0000 ave          70 max          70 min
Histogram: 1 0 0 0 0 0 0 0 0 0
Nghost:        0.00000 ave           0 max           0 min
Histogram: 1 0 0 0 0 0 0 0 0 0
Neighs:        38.0000 ave          38 max          38 min
Histogram: 1 0 0 0 0 0 0 0 0 0

Total # of neighbors = 38
Ave neighs/atom = 0.54285714
Ave special neighs/atom = 0.057142857
Neighbor list builds = 2
Dangerous builds = 0

# delate all atoms in garbage
delete_atoms group garbage bond yes mol yes
WARNING: Ignoring 'compress yes' for molecular system (src/delete_atoms.cpp:125)
Deleted 4 atoms, new total = 66
Deleted 2 bonds, new total = 0

# jump to loop lable until step > 0
next step
jump SELF loop
variable step loop ${duration}   # loop length
variable step loop 500   

# create new atoms only if new bonds have been made
# the num of new atoms is linked to the number of new bonds as follow:
variable newatoms equal floor(${bondcounter}/2)
variable newatoms equal floor(4/2)
if "${bondcounter} > 0" then    "fix depositatoms all deposit ${newatoms} 3 1 5748 region box near 2.0"
fix depositatoms all deposit ${newatoms} 3 1 5748 region box near 2.0
fix depositatoms all deposit 2 3 1 5748 region box near 2.0
# fix ID group-ID deposit N type M seed keyword values

# assing all atoms that have a bond to the garbage group
group garbage dynamic all every 1 var hasbond
dynamic group garbage defined

# append new values on dump file
dump_modify 1 append yes

# perform n steps in loop
run 100
Last active /omp style is bond_style harmonic/omp
WARNING: One or more dynamic groups may not be updated at correct point in timestep (src/fix_group.cpp:172)
Per MPI rank memory allocation (min/avg/max) = 28.33 | 28.33 | 28.33 Mbytes
Step Temp PotEng v_bondcounter 
    1700     313.8178            0            0 
    1800    340.06518            0            0 
Loop time of 0.015828 on 16 procs for 100 steps with 68 atoms

Performance: 5458667.024 tau/day, 6317.902 timesteps/s
499.0% CPU use with 1 MPI tasks x 16 OpenMP threads

MPI task timing breakdown:
Section |  min time  |  avg time  |  max time  |%varavg| %total
---------------------------------------------------------------
Pair    | 1.2353e-05 | 1.2353e-05 | 1.2353e-05 |   0.0 |  0.08
Bond    | 0.0051615  | 0.0051615  | 0.0051615  |   0.0 | 32.61
Neigh   | 8.1609e-05 | 8.1609e-05 | 8.1609e-05 |   0.0 |  0.52
Comm    | 1.8067e-05 | 1.8067e-05 | 1.8067e-05 |   0.0 |  0.11
Output  | 0.00090527 | 0.00090527 | 0.00090527 |   0.0 |  5.72
Modify  | 0.0095684  | 0.0095684  | 0.0095684  |   0.0 | 60.45
Other   |            | 8.083e-05  |            |       |  0.51

Nlocal:        68.0000 ave          68 max          68 min
Histogram: 1 0 0 0 0 0 0 0 0 0
Nghost:        0.00000 ave           0 max           0 min
Histogram: 1 0 0 0 0 0 0 0 0 0
Neighs:        41.0000 ave          41 max          41 min
Histogram: 1 0 0 0 0 0 0 0 0 0

Total # of neighbors = 41
Ave neighs/atom = 0.60294118
Ave special neighs/atom = 0.0000000
Neighbor list builds = 2
Dangerous builds = 0

# delate all atoms in garbage
delete_atoms group garbage bond yes mol yes
WARNING: Ignoring 'compress yes' for molecular system (src/delete_atoms.cpp:125)
Deleted 0 atoms, new total = 68

# jump to loop lable until step > 0
next step
jump SELF loop
variable step loop ${duration}   # loop length
variable step loop 500   

# create new atoms only if new bonds have been made
# the num of new atoms is linked to the number of new bonds as follow:
variable newatoms equal floor(${bondcounter}/2)
variable newatoms equal floor(0/2)
if "${bondcounter} > 0" then    "fix depositatoms all deposit ${newatoms} 3 1 5748 region box near 2.0"
# fix ID group-ID deposit N type M seed keyword values

# assing all atoms that have a bond to the garbage group
group garbage dynamic all every 1 var hasbond
dynamic group garbage defined

# append new values on dump file
dump_modify 1 append yes

# perform n steps in loop
run 100
Last active /omp style is bond_style harmonic/omp
WARNING: One or more dynamic groups may not be updated at correct point in timestep (src/fix_group.cpp:172)
Per MPI rank memory allocation (min/avg/max) = 28.33 | 28.33 | 28.33 Mbytes
Step Temp PotEng v_bondcounter 
    1800    329.91398            0            0 
    1900    310.85412            0            0 
Loop time of 0.0159551 on 16 procs for 100 steps with 68 atoms

Performance: 5415191.983 tau/day, 6267.583 timesteps/s
449.6% CPU use with 1 MPI tasks x 16 OpenMP threads

MPI task timing breakdown:
Section |  min time  |  avg time  |  max time  |%varavg| %total
---------------------------------------------------------------
Pair    | 1.2426e-05 | 1.2426e-05 | 1.2426e-05 |   0.0 |  0.08
Bond    | 0.0049073  | 0.0049073  | 0.0049073  |   0.0 | 30.76
Neigh   | 5.9235e-05 | 5.9235e-05 | 5.9235e-05 |   0.0 |  0.37
Comm    | 1.8571e-05 | 1.8571e-05 | 1.8571e-05 |   0.0 |  0.12
Output  | 0.00087156 | 0.00087156 | 0.00087156 |   0.0 |  5.46
Modify  | 0.01003    | 0.01003    | 0.01003    |   0.0 | 62.87
Other   |            | 5.571e-05  |            |       |  0.35

Nlocal:        68.0000 ave          68 max          68 min
Histogram: 1 0 0 0 0 0 0 0 0 0
Nghost:        0.00000 ave           0 max           0 min
Histogram: 1 0 0 0 0 0 0 0 0 0
Neighs:        34.0000 ave          34 max          34 min
Histogram: 1 0 0 0 0 0 0 0 0 0

Total # of neighbors = 34
Ave neighs/atom = 0.5
Ave special neighs/atom = 0.0000000
Neighbor list builds = 1
Dangerous builds = 1

# delate all atoms in garbage
delete_atoms group garbage bond yes mol yes
WARNING: Ignoring 'compress yes' for molecular system (src/delete_atoms.cpp:125)
Deleted 0 atoms, new total = 68

# jump to loop lable until step > 0
next step
jump SELF loop
variable step loop ${duration}   # loop length
variable step loop 500   

# create new atoms only if new bonds have been made
# the num of new atoms is linked to the number of new bonds as follow:
variable newatoms equal floor(${bondcounter}/2)
variable newatoms equal floor(0/2)
if "${bondcounter} > 0" then    "fix depositatoms all deposit ${newatoms} 3 1 5748 region box near 2.0"
# fix ID group-ID deposit N type M seed keyword values

# assing all atoms that have a bond to the garbage group
group garbage dynamic all every 1 var hasbond
dynamic group garbage defined

# append new values on dump file
dump_modify 1 append yes

# perform n steps in loop
run 100
Last active /omp style is bond_style harmonic/omp
WARNING: One or more dynamic groups may not be updated at correct point in timestep (src/fix_group.cpp:172)
Per MPI rank memory allocation (min/avg/max) = 28.33 | 28.33 | 28.33 Mbytes
Step Temp PotEng v_bondcounter 
    1900    310.85412            0            0 
    2000    322.41309    5.3846696            2 
Loop time of 0.0177461 on 16 procs for 100 steps with 68 atoms

Performance: 4868688.540 tau/day, 5635.056 timesteps/s
333.4% CPU use with 1 MPI tasks x 16 OpenMP threads

MPI task timing breakdown:
Section |  min time  |  avg time  |  max time  |%varavg| %total
---------------------------------------------------------------
Pair    | 1.2223e-05 | 1.2223e-05 | 1.2223e-05 |   0.0 |  0.07
Bond    | 0.0050421  | 0.0050421  | 0.0050421  |   0.0 | 28.41
Neigh   | 2.8626e-05 | 2.8626e-05 | 2.8626e-05 |   0.0 |  0.16
Comm    | 1.7745e-05 | 1.7745e-05 | 1.7745e-05 |   0.0 |  0.10
Output  | 0.00095609 | 0.00095609 | 0.00095609 |   0.0 |  5.39
Modify  | 0.011639   | 0.011639   | 0.011639   |   0.0 | 65.59
Other   |            | 4.986e-05  |            |       |  0.28

Nlocal:        68.0000 ave          68 max          68 min
Histogram: 1 0 0 0 0 0 0 0 0 0
Nghost:        0.00000 ave           0 max           0 min
Histogram: 1 0 0 0 0 0 0 0 0 0
Neighs:        34.0000 ave          34 max          34 min
Histogram: 1 0 0 0 0 0 0 0 0 0

Total # of neighbors = 34
Ave neighs/atom = 0.5
Ave special neighs/atom = 0.029411765
Neighbor list builds = 1
Dangerous builds = 0

# delate all atoms in garbage
delete_atoms group garbage bond yes mol yes
WARNING: Ignoring 'compress yes' for molecular system (src/delete_atoms.cpp:125)
Deleted 2 atoms, new total = 66
Deleted 1 bonds, new total = 0

# jump to loop lable until step > 0
next step
jump SELF loop
variable step loop ${duration}   # loop length
variable step loop 500   

# create new atoms only if new bonds have been made
# the num of new atoms is linked to the number of new bonds as follow:
variable newatoms equal floor(${bondcounter}/2)
variable newatoms equal floor(2/2)
if "${bondcounter} > 0" then    "fix depositatoms all deposit ${newatoms} 3 1 5748 region box near 2.0"
fix depositatoms all deposit ${newatoms} 3 1 5748 region box near 2.0
fix depositatoms all deposit 1 3 1 5748 region box near 2.0
# fix ID group-ID deposit N type M seed keyword values

# assing all atoms that have a bond to the garbage group
group garbage dynamic all every 1 var hasbond
dynamic group garbage defined

# append new values on dump file
dump_modify 1 append yes

# perform n steps in loop
run 100
Last active /omp style is bond_style harmonic/omp
WARNING: One or more dynamic groups may not be updated at correct point in timestep (src/fix_group.cpp:172)
Per MPI rank memory allocation (min/avg/max) = 28.33 | 28.33 | 28.33 Mbytes
Step Temp PotEng v_bondcounter 
    2000    323.49111            0            0 
    2100    331.34752            0            0 
Loop time of 0.0149725 on 16 procs for 100 steps with 67 atoms

Performance: 5770563.979 tau/day, 6678.893 timesteps/s
363.3% CPU use with 1 MPI tasks x 16 OpenMP threads

MPI task timing breakdown:
Section |  min time  |  avg time  |  max time  |%varavg| %total
---------------------------------------------------------------
Pair    | 1.2699e-05 | 1.2699e-05 | 1.2699e-05 |   0.0 |  0.08
Bond    | 0.0046463  | 0.0046463  | 0.0046463  |   0.0 | 31.03
Neigh   | 4.3389e-05 | 4.3389e-05 | 4.3389e-05 |   0.0 |  0.29
Comm    | 1.6552e-05 | 1.6552e-05 | 1.6552e-05 |   0.0 |  0.11
Output  | 0.00086858 | 0.00086858 | 0.00086858 |   0.0 |  5.80
Modify  | 0.009337   | 0.009337   | 0.009337   |   0.0 | 62.36
Other   |            | 4.796e-05  |            |       |  0.32

Nlocal:        67.0000 ave          67 max          67 min
Histogram: 1 0 0 0 0 0 0 0 0 0
Nghost:        0.00000 ave           0 max           0 min
Histogram: 1 0 0 0 0 0 0 0 0 0
Neighs:        21.0000 ave          21 max          21 min
Histogram: 1 0 0 0 0 0 0 0 0 0

Total # of neighbors = 21
Ave neighs/atom = 0.31343284
Ave special neighs/atom = 0.0000000
Neighbor list builds = 1
Dangerous builds = 0

# delate all atoms in garbage
delete_atoms group garbage bond yes mol yes
WARNING: Ignoring 'compress yes' for molecular system (src/delete_atoms.cpp:125)
Deleted 0 atoms, new total = 67

# jump to loop lable until step > 0
next step
jump SELF loop
variable step loop ${duration}   # loop length
variable step loop 500   

# create new atoms only if new bonds have been made
# the num of new atoms is linked to the number of new bonds as follow:
variable newatoms equal floor(${bondcounter}/2)
variable newatoms equal floor(0/2)
if "${bondcounter} > 0" then    "fix depositatoms all deposit ${newatoms} 3 1 5748 region box near 2.0"
# fix ID group-ID deposit N type M seed keyword values

# assing all atoms that have a bond to the garbage group
group garbage dynamic all every 1 var hasbond
dynamic group garbage defined

# append new values on dump file
dump_modify 1 append yes

# perform n steps in loop
run 100
Last active /omp style is bond_style harmonic/omp
WARNING: One or more dynamic groups may not be updated at correct point in timestep (src/fix_group.cpp:172)
Per MPI rank memory allocation (min/avg/max) = 28.33 | 28.33 | 28.33 Mbytes
Step Temp PotEng v_bondcounter 
    2100     326.3271            0            0 
    2200     326.9599            0            0 
Loop time of 0.0145913 on 16 procs for 100 steps with 67 atoms

Performance: 5921344.397 tau/day, 6853.408 timesteps/s
417.9% CPU use with 1 MPI tasks x 16 OpenMP threads

MPI task timing breakdown:
Section |  min time  |  avg time  |  max time  |%varavg| %total
---------------------------------------------------------------
Pair    | 1.7832e-05 | 1.7832e-05 | 1.7832e-05 |   0.0 |  0.12
Bond    | 0.0048045  | 0.0048045  | 0.0048045  |   0.0 | 32.93
Neigh   | 4.4581e-05 | 4.4581e-05 | 4.4581e-05 |   0.0 |  0.31
Comm    | 1.797e-05  | 1.797e-05  | 1.797e-05  |   0.0 |  0.12
Output  | 0.00089796 | 0.00089796 | 0.00089796 |   0.0 |  6.15
Modify  | 0.0087604  | 0.0087604  | 0.0087604  |   0.0 | 60.04
Other   |            | 4.801e-05  |            |       |  0.33

Nlocal:        67.0000 ave          67 max          67 min
Histogram: 1 0 0 0 0 0 0 0 0 0
Nghost:        0.00000 ave           0 max           0 min
Histogram: 1 0 0 0 0 0 0 0 0 0
Neighs:        41.0000 ave          41 max          41 min
Histogram: 1 0 0 0 0 0 0 0 0 0

Total # of neighbors = 41
Ave neighs/atom = 0.6119403
Ave special neighs/atom = 0.0000000
Neighbor list builds = 1
Dangerous builds = 1

# delate all atoms in garbage
delete_atoms group garbage bond yes mol yes
WARNING: Ignoring 'compress yes' for molecular system (src/delete_atoms.cpp:125)
Deleted 0 atoms, new total = 67

# jump to loop lable until step > 0
next step
jump SELF loop
variable step loop ${duration}   # loop length
variable step loop 500   

# create new atoms only if new bonds have been made
# the num of new atoms is linked to the number of new bonds as follow:
variable newatoms equal floor(${bondcounter}/2)
variable newatoms equal floor(0/2)
if "${bondcounter} > 0" then    "fix depositatoms all deposit ${newatoms} 3 1 5748 region box near 2.0"
# fix ID group-ID deposit N type M seed keyword values

# assing all atoms that have a bond to the garbage group
group garbage dynamic all every 1 var hasbond
dynamic group garbage defined

# append new values on dump file
dump_modify 1 append yes

# perform n steps in loop
run 100
Last active /omp style is bond_style harmonic/omp
WARNING: One or more dynamic groups may not be updated at correct point in timestep (src/fix_group.cpp:172)
Per MPI rank memory allocation (min/avg/max) = 28.33 | 28.33 | 28.33 Mbytes
Step Temp PotEng v_bondcounter 
    2200     326.9599            0            0 
    2300    345.57084            0            0 
Loop time of 0.0176023 on 16 procs for 100 steps with 67 atoms

Performance: 4908453.089 tau/day, 5681.080 timesteps/s
308.5% CPU use with 1 MPI tasks x 16 OpenMP threads

MPI task timing breakdown:
Section |  min time  |  avg time  |  max time  |%varavg| %total
---------------------------------------------------------------
Pair    | 1.3978e-05 | 1.3978e-05 | 1.3978e-05 |   0.0 |  0.08
Bond    | 0.0047166  | 0.0047166  | 0.0047166  |   0.0 | 26.80
Neigh   | 2.6798e-05 | 2.6798e-05 | 2.6798e-05 |   0.0 |  0.15
Comm    | 1.9643e-05 | 1.9643e-05 | 1.9643e-05 |   0.0 |  0.11
Output  | 0.00086544 | 0.00086544 | 0.00086544 |   0.0 |  4.92
Modify  | 0.011907   | 0.011907   | 0.011907   |   0.0 | 67.65
Other   |            | 5.253e-05  |            |       |  0.30

Nlocal:        67.0000 ave          67 max          67 min
Histogram: 1 0 0 0 0 0 0 0 0 0
Nghost:        0.00000 ave           0 max           0 min
Histogram: 1 0 0 0 0 0 0 0 0 0
Neighs:        44.0000 ave          44 max          44 min
Histogram: 1 0 0 0 0 0 0 0 0 0

Total # of neighbors = 44
Ave neighs/atom = 0.65671642
Ave special neighs/atom = 0.0000000
Neighbor list builds = 1
Dangerous builds = 1

# delate all atoms in garbage
delete_atoms group garbage bond yes mol yes
WARNING: Ignoring 'compress yes' for molecular system (src/delete_atoms.cpp:125)
Deleted 0 atoms, new total = 67

# jump to loop lable until step > 0
next step
jump SELF loop
variable step loop ${duration}   # loop length
variable step loop 500   

# create new atoms only if new bonds have been made
# the num of new atoms is linked to the number of new bonds as follow:
variable newatoms equal floor(${bondcounter}/2)
variable newatoms equal floor(0/2)
if "${bondcounter} > 0" then    "fix depositatoms all deposit ${newatoms} 3 1 5748 region box near 2.0"
# fix ID group-ID deposit N type M seed keyword values

# assing all atoms that have a bond to the garbage group
group garbage dynamic all every 1 var hasbond
dynamic group garbage defined

# append new values on dump file
dump_modify 1 append yes

# perform n steps in loop
run 100
Last active /omp style is bond_style harmonic/omp
WARNING: One or more dynamic groups may not be updated at correct point in timestep (src/fix_group.cpp:172)
Per MPI rank memory allocation (min/avg/max) = 28.33 | 28.33 | 28.33 Mbytes
Step Temp PotEng v_bondcounter 
    2300    345.57084            0            0 
    2400    336.89747            0            0 
Loop time of 0.0158706 on 16 procs for 100 steps with 67 atoms

Performance: 5444045.389 tau/day, 6300.978 timesteps/s
343.4% CPU use with 1 MPI tasks x 16 OpenMP threads

MPI task timing breakdown:
Section |  min time  |  avg time  |  max time  |%varavg| %total
---------------------------------------------------------------
Pair    | 1.5397e-05 | 1.5397e-05 | 1.5397e-05 |   0.0 |  0.10
Bond    | 0.005189   | 0.005189   | 0.005189   |   0.0 | 32.70
Neigh   | 4.3794e-05 | 4.3794e-05 | 4.3794e-05 |   0.0 |  0.28
Comm    | 1.7767e-05 | 1.7767e-05 | 1.7767e-05 |   0.0 |  0.11
Output  | 0.00090661 | 0.00090661 | 0.00090661 |   0.0 |  5.71
Modify  | 0.0096483  | 0.0096483  | 0.0096483  |   0.0 | 60.79
Other   |            | 4.964e-05  |            |       |  0.31

Nlocal:        67.0000 ave          67 max          67 min
Histogram: 1 0 0 0 0 0 0 0 0 0
Nghost:        0.00000 ave           0 max           0 min
Histogram: 1 0 0 0 0 0 0 0 0 0
Neighs:        39.0000 ave          39 max          39 min
Histogram: 1 0 0 0 0 0 0 0 0 0

Total # of neighbors = 39
Ave neighs/atom = 0.58208955
Ave special neighs/atom = 0.0000000
Neighbor list builds = 1
Dangerous builds = 1

# delate all atoms in garbage
delete_atoms group garbage bond yes mol yes
WARNING: Ignoring 'compress yes' for molecular system (src/delete_atoms.cpp:125)
Deleted 0 atoms, new total = 67

# jump to loop lable until step > 0
next step
jump SELF loop
variable step loop ${duration}   # loop length
variable step loop 500   

# create new atoms only if new bonds have been made
# the num of new atoms is linked to the number of new bonds as follow:
variable newatoms equal floor(${bondcounter}/2)
variable newatoms equal floor(0/2)
if "${bondcounter} > 0" then    "fix depositatoms all deposit ${newatoms} 3 1 5748 region box near 2.0"
# fix ID group-ID deposit N type M seed keyword values

# assing all atoms that have a bond to the garbage group
group garbage dynamic all every 1 var hasbond
dynamic group garbage defined

# append new values on dump file
dump_modify 1 append yes

# perform n steps in loop
run 100
Last active /omp style is bond_style harmonic/omp
WARNING: One or more dynamic groups may not be updated at correct point in timestep (src/fix_group.cpp:172)
Per MPI rank memory allocation (min/avg/max) = 28.33 | 28.33 | 28.33 Mbytes
Step Temp PotEng v_bondcounter 
    2400    336.89747            0            0 
    2500    292.49547   0.59005859            2 
Loop time of 0.0156178 on 16 procs for 100 steps with 67 atoms

Performance: 5532154.528 tau/day, 6402.957 timesteps/s
354.5% CPU use with 1 MPI tasks x 16 OpenMP threads

MPI task timing breakdown:
Section |  min time  |  avg time  |  max time  |%varavg| %total
---------------------------------------------------------------
Pair    | 1.2558e-05 | 1.2558e-05 | 1.2558e-05 |   0.0 |  0.08
Bond    | 0.0049299  | 0.0049299  | 0.0049299  |   0.0 | 31.57
Neigh   | 2.9734e-05 | 2.9734e-05 | 2.9734e-05 |   0.0 |  0.19
Comm    | 1.6831e-05 | 1.6831e-05 | 1.6831e-05 |   0.0 |  0.11
Output  | 0.00083926 | 0.00083926 | 0.00083926 |   0.0 |  5.37
Modify  | 0.0097362  | 0.0097362  | 0.0097362  |   0.0 | 62.34
Other   |            | 5.337e-05  |            |       |  0.34

Nlocal:        67.0000 ave          67 max          67 min
Histogram: 1 0 0 0 0 0 0 0 0 0
Nghost:        0.00000 ave           0 max           0 min
Histogram: 1 0 0 0 0 0 0 0 0 0
Neighs:        27.0000 ave          27 max          27 min
Histogram: 1 0 0 0 0 0 0 0 0 0

Total # of neighbors = 27
Ave neighs/atom = 0.40298507
Ave special neighs/atom = 0.029850746
Neighbor list builds = 1
Dangerous builds = 0

# delate all atoms in garbage
delete_atoms group garbage bond yes mol yes
WARNING: Ignoring 'compress yes' for molecular system (src/delete_atoms.cpp:125)
Deleted 2 atoms, new total = 65
Deleted 1 bonds, new total = 0

# jump to loop lable until step > 0
next step
jump SELF loop
variable step loop ${duration}   # loop length
variable step loop 500   

# create new atoms only if new bonds have been made
# the num of new atoms is linked to the number of new bonds as follow:
variable newatoms equal floor(${bondcounter}/2)
variable newatoms equal floor(2/2)
if "${bondcounter} > 0" then    "fix depositatoms all deposit ${newatoms} 3 1 5748 region box near 2.0"
fix depositatoms all deposit ${newatoms} 3 1 5748 region box near 2.0
fix depositatoms all deposit 1 3 1 5748 region box near 2.0
# fix ID group-ID deposit N type M seed keyword values

# assing all atoms that have a bond to the garbage group
group garbage dynamic all every 1 var hasbond
dynamic group garbage defined

# append new values on dump file
dump_modify 1 append yes

# perform n steps in loop
run 100
Last active /omp style is bond_style harmonic/omp
WARNING: One or more dynamic groups may not be updated at correct point in timestep (src/fix_group.cpp:172)
Per MPI rank memory allocation (min/avg/max) = 28.33 | 28.33 | 28.33 Mbytes
Step Temp PotEng v_bondcounter 
    2500    295.45224            0            0 
    2600    304.79987            0            0 
Loop time of 0.0157323 on 16 procs for 100 steps with 66 atoms

Performance: 5491870.411 tau/day, 6356.331 timesteps/s
356.0% CPU use with 1 MPI tasks x 16 OpenMP threads

MPI task timing breakdown:
Section |  min time  |  avg time  |  max time  |%varavg| %total
---------------------------------------------------------------
Pair    | 1.2232e-05 | 1.2232e-05 | 1.2232e-05 |   0.0 |  0.08
Bond    | 0.0046217  | 0.0046217  | 0.0046217  |   0.0 | 29.38
Neigh   | 2.3647e-05 | 2.3647e-05 | 2.3647e-05 |   0.0 |  0.15
Comm    | 1.5622e-05 | 1.5622e-05 | 1.5622e-05 |   0.0 |  0.10
Output  | 0.00081391 | 0.00081391 | 0.00081391 |   0.0 |  5.17
Modify  | 0.010093   | 0.010093   | 0.010093   |   0.0 | 64.15
Other   |            | 0.0001525  |            |       |  0.97

Nlocal:        66.0000 ave          66 max          66 min
Histogram: 1 0 0 0 0 0 0 0 0 0
Nghost:        0.00000 ave           0 max           0 min
Histogram: 1 0 0 0 0 0 0 0 0 0
Neighs:        26.0000 ave          26 max          26 min
Histogram: 1 0 0 0 0 0 0 0 0 0

Total # of neighbors = 26
Ave neighs/atom = 0.39393939
Ave special neighs/atom = 0.0000000
Neighbor list builds = 1
Dangerous builds = 0

# delate all atoms in garbage
delete_atoms group garbage bond yes mol yes
WARNING: Ignoring 'compress yes' for molecular system (src/delete_atoms.cpp:125)
Deleted 0 atoms, new total = 66

# jump to loop lable until step > 0
next step
jump SELF loop
variable step loop ${duration}   # loop length
variable step loop 500   

# create new atoms only if new bonds have been made
# the num of new atoms is linked to the number of new bonds as follow:
variable newatoms equal floor(${bondcounter}/2)
variable newatoms equal floor(0/2)
if "${bondcounter} > 0" then    "fix depositatoms all deposit ${newatoms} 3 1 5748 region box near 2.0"
# fix ID group-ID deposit N type M seed keyword values

# assing all atoms that have a bond to the garbage group
group garbage dynamic all every 1 var hasbond
dynamic group garbage defined

# append new values on dump file
dump_modify 1 append yes

# perform n steps in loop
run 100
Last active /omp style is bond_style harmonic/omp
WARNING: One or more dynamic groups may not be updated at correct point in timestep (src/fix_group.cpp:172)
Per MPI rank memory allocation (min/avg/max) = 28.33 | 28.33 | 28.33 Mbytes
Step Temp PotEng v_bondcounter 
    2600    300.11064            0            0 
    2700    322.55536   0.11547046            2 
Loop time of 0.016009 on 16 procs for 100 steps with 66 atoms

Performance: 5396960.836 tau/day, 6246.482 timesteps/s
351.7% CPU use with 1 MPI tasks x 16 OpenMP threads

MPI task timing breakdown:
Section |  min time  |  avg time  |  max time  |%varavg| %total
---------------------------------------------------------------
Pair    | 1.1766e-05 | 1.1766e-05 | 1.1766e-05 |   0.0 |  0.07
Bond    | 0.004941   | 0.004941   | 0.004941   |   0.0 | 30.86
Neigh   | 4.3534e-05 | 4.3534e-05 | 4.3534e-05 |   0.0 |  0.27
Comm    | 1.7136e-05 | 1.7136e-05 | 1.7136e-05 |   0.0 |  0.11
Output  | 0.00091967 | 0.00091967 | 0.00091967 |   0.0 |  5.74
Modify  | 0.01003    | 0.01003    | 0.01003    |   0.0 | 62.65
Other   |            | 4.56e-05   |            |       |  0.28

Nlocal:        66.0000 ave          66 max          66 min
Histogram: 1 0 0 0 0 0 0 0 0 0
Nghost:        0.00000 ave           0 max           0 min
Histogram: 1 0 0 0 0 0 0 0 0 0
Neighs:        28.0000 ave          28 max          28 min
Histogram: 1 0 0 0 0 0 0 0 0 0

Total # of neighbors = 28
Ave neighs/atom = 0.42424242
Ave special neighs/atom = 0.03030303
Neighbor list builds = 1
Dangerous builds = 0

# delate all atoms in garbage
delete_atoms group garbage bond yes mol yes
WARNING: Ignoring 'compress yes' for molecular system (src/delete_atoms.cpp:125)
Deleted 2 atoms, new total = 64
Deleted 1 bonds, new total = 0

# jump to loop lable until step > 0
next step
jump SELF loop
variable step loop ${duration}   # loop length
variable step loop 500   

# create new atoms only if new bonds have been made
# the num of new atoms is linked to the number of new bonds as follow:
variable newatoms equal floor(${bondcounter}/2)
variable newatoms equal floor(2/2)
if "${bondcounter} > 0" then    "fix depositatoms all deposit ${newatoms} 3 1 5748 region box near 2.0"
fix depositatoms all deposit ${newatoms} 3 1 5748 region box near 2.0
fix depositatoms all deposit 1 3 1 5748 region box near 2.0
# fix ID group-ID deposit N type M seed keyword values

# assing all atoms that have a bond to the garbage group
group garbage dynamic all every 1 var hasbond
dynamic group garbage defined

# append new values on dump file
dump_modify 1 append yes

# perform n steps in loop
run 100
Last active /omp style is bond_style harmonic/omp
WARNING: One or more dynamic groups may not be updated at correct point in timestep (src/fix_group.cpp:172)
Per MPI rank memory allocation (min/avg/max) = 28.33 | 28.33 | 28.33 Mbytes
Step Temp PotEng v_bondcounter 
    2700    329.19102            0            0 
    2800    316.33446            0            0 
Loop time of 0.0163753 on 16 procs for 100 steps with 65 atoms

Performance: 5276234.381 tau/day, 6106.753 timesteps/s
403.1% CPU use with 1 MPI tasks x 16 OpenMP threads

MPI task timing breakdown:
Section |  min time  |  avg time  |  max time  |%varavg| %total
---------------------------------------------------------------
Pair    | 1.2992e-05 | 1.2992e-05 | 1.2992e-05 |   0.0 |  0.08
Bond    | 0.0062721  | 0.0062721  | 0.0062721  |   0.0 | 38.30
Neigh   | 4.6548e-05 | 4.6548e-05 | 4.6548e-05 |   0.0 |  0.28
Comm    | 1.7013e-05 | 1.7013e-05 | 1.7013e-05 |   0.0 |  0.10
Output  | 0.00086711 | 0.00086711 | 0.00086711 |   0.0 |  5.30
Modify  | 0.0091068  | 0.0091068  | 0.0091068  |   0.0 | 55.61
Other   |            | 5.278e-05  |            |       |  0.32

Nlocal:        65.0000 ave          65 max          65 min
Histogram: 1 0 0 0 0 0 0 0 0 0
Nghost:        0.00000 ave           0 max           0 min
Histogram: 1 0 0 0 0 0 0 0 0 0
Neighs:        34.0000 ave          34 max          34 min
Histogram: 1 0 0 0 0 0 0 0 0 0

Total # of neighbors = 34
Ave neighs/atom = 0.52307692
Ave special neighs/atom = 0.0000000
Neighbor list builds = 1
Dangerous builds = 0

# delate all atoms in garbage
delete_atoms group garbage bond yes mol yes
WARNING: Ignoring 'compress yes' for molecular system (src/delete_atoms.cpp:125)
Deleted 0 atoms, new total = 65

# jump to loop lable until step > 0
next step
jump SELF loop
variable step loop ${duration}   # loop length
variable step loop 500   

# create new atoms only if new bonds have been made
# the num of new atoms is linked to the number of new bonds as follow:
variable newatoms equal floor(${bondcounter}/2)
variable newatoms equal floor(0/2)
if "${bondcounter} > 0" then    "fix depositatoms all deposit ${newatoms} 3 1 5748 region box near 2.0"
# fix ID group-ID deposit N type M seed keyword values

# assing all atoms that have a bond to the garbage group
group garbage dynamic all every 1 var hasbond
dynamic group garbage defined

# append new values on dump file
dump_modify 1 append yes

# perform n steps in loop
run 100
Last active /omp style is bond_style harmonic/omp
WARNING: One or more dynamic groups may not be updated at correct point in timestep (src/fix_group.cpp:172)
Per MPI rank memory allocation (min/avg/max) = 28.33 | 28.33 | 28.33 Mbytes
Step Temp PotEng v_bondcounter 
    2800    311.39173            0            0 
    2900     301.5276            0            0 
Loop time of 0.0147466 on 16 procs for 100 steps with 65 atoms

Performance: 5858983.225 tau/day, 6781.231 timesteps/s
372.6% CPU use with 1 MPI tasks x 16 OpenMP threads

MPI task timing breakdown:
Section |  min time  |  avg time  |  max time  |%varavg| %total
---------------------------------------------------------------
Pair    | 1.3121e-05 | 1.3121e-05 | 1.3121e-05 |   0.0 |  0.09
Bond    | 0.0047429  | 0.0047429  | 0.0047429  |   0.0 | 32.16
Neigh   | 5.7592e-05 | 5.7592e-05 | 5.7592e-05 |   0.0 |  0.39
Comm    | 1.8239e-05 | 1.8239e-05 | 1.8239e-05 |   0.0 |  0.12
Output  | 0.00089007 | 0.00089007 | 0.00089007 |   0.0 |  6.04
Modify  | 0.0089728  | 0.0089728  | 0.0089728  |   0.0 | 60.85
Other   |            | 5.188e-05  |            |       |  0.35

Nlocal:        65.0000 ave          65 max          65 min
Histogram: 1 0 0 0 0 0 0 0 0 0
Nghost:        0.00000 ave           0 max           0 min
Histogram: 1 0 0 0 0 0 0 0 0 0
Neighs:        20.0000 ave          20 max          20 min
Histogram: 1 0 0 0 0 0 0 0 0 0

Total # of neighbors = 20
Ave neighs/atom = 0.30769231
Ave special neighs/atom = 0.0000000
Neighbor list builds = 1
Dangerous builds = 1

# delate all atoms in garbage
delete_atoms group garbage bond yes mol yes
WARNING: Ignoring 'compress yes' for molecular system (src/delete_atoms.cpp:125)
Deleted 0 atoms, new total = 65

# jump to loop lable until step > 0
next step
jump SELF loop
variable step loop ${duration}   # loop length
variable step loop 500   

# create new atoms only if new bonds have been made
# the num of new atoms is linked to the number of new bonds as follow:
variable newatoms equal floor(${bondcounter}/2)
variable newatoms equal floor(0/2)
if "${bondcounter} > 0" then    "fix depositatoms all deposit ${newatoms} 3 1 5748 region box near 2.0"
# fix ID group-ID deposit N type M seed keyword values

# assing all atoms that have a bond to the garbage group
group garbage dynamic all every 1 var hasbond
dynamic group garbage defined

# append new values on dump file
dump_modify 1 append yes

# perform n steps in loop
run 100
Last active /omp style is bond_style harmonic/omp
WARNING: One or more dynamic groups may not be updated at correct point in timestep (src/fix_group.cpp:172)
Per MPI rank memory allocation (min/avg/max) = 28.33 | 28.33 | 28.33 Mbytes
Step Temp PotEng v_bondcounter 
    2900     301.5276            0            0 
    3000    295.61716            0            0 
Loop time of 0.0156176 on 16 procs for 100 steps with 65 atoms

Performance: 5532206.599 tau/day, 6403.017 timesteps/s
391.3% CPU use with 1 MPI tasks x 16 OpenMP threads

MPI task timing breakdown:
Section |  min time  |  avg time  |  max time  |%varavg| %total
---------------------------------------------------------------
[...]
next step
jump SELF loop
variable step loop ${duration}   # loop length
variable step loop 500   

# create new atoms only if new bonds have been made
# the num of new atoms is linked to the number of new bonds as follow:
variable newatoms equal floor(${bondcounter}/2)
variable newatoms equal floor(0/2)
if "${bondcounter} > 0" then    "fix depositatoms all deposit ${newatoms} 3 1 5748 region box near 2.0"
# fix ID group-ID deposit N type M seed keyword values

# assing all atoms that have a bond to the garbage group
group garbage dynamic all every 1 var hasbond
dynamic group garbage defined

# append new values on dump file
dump_modify 1 append yes

# perform n steps in loop
run 100
Last active /omp style is bond_style harmonic/omp
WARNING: One or more dynamic groups may not be updated at correct point in timestep (src/fix_group.cpp:172)
Per MPI rank memory allocation (min/avg/max) = 28.33 | 28.33 | 28.33 Mbytes
Step Temp PotEng v_bondcounter 
   49200    311.40235            0            0 
   49300    291.38217            0            0 
Loop time of 0.0164614 on 16 procs for 100 steps with 46 atoms

Performance: 5248634.307 tau/day, 6074.808 timesteps/s
288.4% CPU use with 1 MPI tasks x 16 OpenMP threads

MPI task timing breakdown:
Section |  min time  |  avg time  |  max time  |%varavg| %total
---------------------------------------------------------------
Pair    | 1.1928e-05 | 1.1928e-05 | 1.1928e-05 |   0.0 |  0.07
Bond    | 0.0059261  | 0.0059261  | 0.0059261  |   0.0 | 36.00
Neigh   | 2.4696e-05 | 2.4696e-05 | 2.4696e-05 |   0.0 |  0.15
Comm    | 1.7025e-05 | 1.7025e-05 | 1.7025e-05 |   0.0 |  0.10
Output  | 0.00066541 | 0.00066541 | 0.00066541 |   0.0 |  4.04
Modify  | 0.0097655  | 0.0097655  | 0.0097655  |   0.0 | 59.32
Other   |            | 5.074e-05  |            |       |  0.31

Nlocal:        46.0000 ave          46 max          46 min
Histogram: 1 0 0 0 0 0 0 0 0 0
Nghost:        0.00000 ave           0 max           0 min
Histogram: 1 0 0 0 0 0 0 0 0 0
Neighs:        15.0000 ave          15 max          15 min
Histogram: 1 0 0 0 0 0 0 0 0 0

Total # of neighbors = 15
Ave neighs/atom = 0.32608696
Ave special neighs/atom = 0.0000000
Neighbor list builds = 1
Dangerous builds = 1

# delate all atoms in garbage
delete_atoms group garbage bond yes mol yes
WARNING: Ignoring 'compress yes' for molecular system (src/delete_atoms.cpp:125)
Deleted 0 atoms, new total = 46

# jump to loop lable until step > 0
next step
jump SELF loop
variable step loop ${duration}   # loop length
variable step loop 500   

# create new atoms only if new bonds have been made
# the num of new atoms is linked to the number of new bonds as follow:
variable newatoms equal floor(${bondcounter}/2)
variable newatoms equal floor(0/2)
if "${bondcounter} > 0" then    "fix depositatoms all deposit ${newatoms} 3 1 5748 region box near 2.0"
# fix ID group-ID deposit N type M seed keyword values

# assing all atoms that have a bond to the garbage group
group garbage dynamic all every 1 var hasbond
dynamic group garbage defined

# append new values on dump file
dump_modify 1 append yes

# perform n steps in loop
run 100
Last active /omp style is bond_style harmonic/omp
WARNING: One or more dynamic groups may not be updated at correct point in timestep (src/fix_group.cpp:172)
Per MPI rank memory allocation (min/avg/max) = 28.33 | 28.33 | 28.33 Mbytes
Step Temp PotEng v_bondcounter 
   49300    291.38217            0            0 
   49400    291.72504            0            0 
Loop time of 0.0157339 on 16 procs for 100 steps with 46 atoms

Performance: 5491331.482 tau/day, 6355.708 timesteps/s
347.2% CPU use with 1 MPI tasks x 16 OpenMP threads

MPI task timing breakdown:
Section |  min time  |  avg time  |  max time  |%varavg| %total
---------------------------------------------------------------
Pair    | 1.2259e-05 | 1.2259e-05 | 1.2259e-05 |   0.0 |  0.08
Bond    | 0.0049897  | 0.0049897  | 0.0049897  |   0.0 | 31.71
Neigh   | 2.445e-05  | 2.445e-05  | 2.445e-05  |   0.0 |  0.16
Comm    | 1.7041e-05 | 1.7041e-05 | 1.7041e-05 |   0.0 |  0.11
Output  | 0.00069525 | 0.00069525 | 0.00069525 |   0.0 |  4.42
Modify  | 0.0099488  | 0.0099488  | 0.0099488  |   0.0 | 63.23
Other   |            | 4.639e-05  |            |       |  0.29

Nlocal:        46.0000 ave          46 max          46 min
Histogram: 1 0 0 0 0 0 0 0 0 0
Nghost:        0.00000 ave           0 max           0 min
Histogram: 1 0 0 0 0 0 0 0 0 0
Neighs:        18.0000 ave          18 max          18 min
Histogram: 1 0 0 0 0 0 0 0 0 0

Total # of neighbors = 18
Ave neighs/atom = 0.39130435
Ave special neighs/atom = 0.0000000
Neighbor list builds = 1
Dangerous builds = 1

# delate all atoms in garbage
delete_atoms group garbage bond yes mol yes
WARNING: Ignoring 'compress yes' for molecular system (src/delete_atoms.cpp:125)
Deleted 0 atoms, new total = 46

# jump to loop lable until step > 0
next step
jump SELF loop
variable step loop ${duration}   # loop length
variable step loop 500   

# create new atoms only if new bonds have been made
# the num of new atoms is linked to the number of new bonds as follow:
variable newatoms equal floor(${bondcounter}/2)
variable newatoms equal floor(0/2)
if "${bondcounter} > 0" then    "fix depositatoms all deposit ${newatoms} 3 1 5748 region box near 2.0"
# fix ID group-ID deposit N type M seed keyword values

# assing all atoms that have a bond to the garbage group
group garbage dynamic all every 1 var hasbond
dynamic group garbage defined

# append new values on dump file
dump_modify 1 append yes

# perform n steps in loop
run 100
Last active /omp style is bond_style harmonic/omp
WARNING: One or more dynamic groups may not be updated at correct point in timestep (src/fix_group.cpp:172)
Per MPI rank memory allocation (min/avg/max) = 28.33 | 28.33 | 28.33 Mbytes
Step Temp PotEng v_bondcounter 
   49400    291.72504            0            0 
   49500    276.19109            0            0 
Loop time of 0.0153604 on 16 procs for 100 steps with 46 atoms

Performance: 5624862.674 tau/day, 6510.258 timesteps/s
351.1% CPU use with 1 MPI tasks x 16 OpenMP threads

MPI task timing breakdown:
Section |  min time  |  avg time  |  max time  |%varavg| %total
---------------------------------------------------------------
Pair    | 1.1346e-05 | 1.1346e-05 | 1.1346e-05 |   0.0 |  0.07
Bond    | 0.0046325  | 0.0046325  | 0.0046325  |   0.0 | 30.16
Neigh   | 2.4646e-05 | 2.4646e-05 | 2.4646e-05 |   0.0 |  0.16
Comm    | 2.0147e-05 | 2.0147e-05 | 2.0147e-05 |   0.0 |  0.13
Output  | 0.00066319 | 0.00066319 | 0.00066319 |   0.0 |  4.32
Modify  | 0.0099383  | 0.0099383  | 0.0099383  |   0.0 | 64.70
Other   |            | 7.024e-05  |            |       |  0.46

Nlocal:        46.0000 ave          46 max          46 min
Histogram: 1 0 0 0 0 0 0 0 0 0
Nghost:        0.00000 ave           0 max           0 min
Histogram: 1 0 0 0 0 0 0 0 0 0
Neighs:        14.0000 ave          14 max          14 min
Histogram: 1 0 0 0 0 0 0 0 0 0

Total # of neighbors = 14
Ave neighs/atom = 0.30434783
Ave special neighs/atom = 0.0000000
Neighbor list builds = 1
Dangerous builds = 1

# delate all atoms in garbage
delete_atoms group garbage bond yes mol yes
WARNING: Ignoring 'compress yes' for molecular system (src/delete_atoms.cpp:125)
Deleted 0 atoms, new total = 46

# jump to loop lable until step > 0
next step
jump SELF loop
variable step loop ${duration}   # loop length
variable step loop 500   

# create new atoms only if new bonds have been made
# the num of new atoms is linked to the number of new bonds as follow:
variable newatoms equal floor(${bondcounter}/2)
variable newatoms equal floor(0/2)
if "${bondcounter} > 0" then    "fix depositatoms all deposit ${newatoms} 3 1 5748 region box near 2.0"
# fix ID group-ID deposit N type M seed keyword values

# assing all atoms that have a bond to the garbage group
group garbage dynamic all every 1 var hasbond
dynamic group garbage defined

# append new values on dump file
dump_modify 1 append yes

# perform n steps in loop
run 100
Last active /omp style is bond_style harmonic/omp
WARNING: One or more dynamic groups may not be updated at correct point in timestep (src/fix_group.cpp:172)
Per MPI rank memory allocation (min/avg/max) = 28.33 | 28.33 | 28.33 Mbytes
Step Temp PotEng v_bondcounter 
   49500    276.19109            0            0 
   49600    287.52834            0            0 
Loop time of 0.0157485 on 16 procs for 100 steps with 46 atoms

Performance: 5486223.547 tau/day, 6349.796 timesteps/s
353.9% CPU use with 1 MPI tasks x 16 OpenMP threads

MPI task timing breakdown:
Section |  min time  |  avg time  |  max time  |%varavg| %total
---------------------------------------------------------------
Pair    | 1.2941e-05 | 1.2941e-05 | 1.2941e-05 |   0.0 |  0.08
Bond    | 0.0051328  | 0.0051328  | 0.0051328  |   0.0 | 32.59
Neigh   | 2.5298e-05 | 2.5298e-05 | 2.5298e-05 |   0.0 |  0.16
Comm    | 1.9249e-05 | 1.9249e-05 | 1.9249e-05 |   0.0 |  0.12
Output  | 0.00072532 | 0.00072532 | 0.00072532 |   0.0 |  4.61
Modify  | 0.0097836  | 0.0097836  | 0.0097836  |   0.0 | 62.12
Other   |            | 4.937e-05  |            |       |  0.31

Nlocal:        46.0000 ave          46 max          46 min
Histogram: 1 0 0 0 0 0 0 0 0 0
Nghost:        0.00000 ave           0 max           0 min
Histogram: 1 0 0 0 0 0 0 0 0 0
Neighs:        17.0000 ave          17 max          17 min
Histogram: 1 0 0 0 0 0 0 0 0 0

Total # of neighbors = 17
Ave neighs/atom = 0.36956522
Ave special neighs/atom = 0.0000000
Neighbor list builds = 1
Dangerous builds = 1

# delate all atoms in garbage
delete_atoms group garbage bond yes mol yes
WARNING: Ignoring 'compress yes' for molecular system (src/delete_atoms.cpp:125)
Deleted 0 atoms, new total = 46

# jump to loop lable until step > 0
next step
jump SELF loop
variable step loop ${duration}   # loop length
variable step loop 500   

# create new atoms only if new bonds have been made
# the num of new atoms is linked to the number of new bonds as follow:
variable newatoms equal floor(${bondcounter}/2)
variable newatoms equal floor(0/2)
if "${bondcounter} > 0" then    "fix depositatoms all deposit ${newatoms} 3 1 5748 region box near 2.0"
# fix ID group-ID deposit N type M seed keyword values

# assing all atoms that have a bond to the garbage group
group garbage dynamic all every 1 var hasbond
dynamic group garbage defined

# append new values on dump file
dump_modify 1 append yes

# perform n steps in loop
run 100
Last active /omp style is bond_style harmonic/omp
WARNING: One or more dynamic groups may not be updated at correct point in timestep (src/fix_group.cpp:172)
Per MPI rank memory allocation (min/avg/max) = 28.33 | 28.33 | 28.33 Mbytes
Step Temp PotEng v_bondcounter 
   49600    287.52834            0            0 
   49700    280.27417            0            0 
Loop time of 0.0163379 on 16 procs for 100 steps with 46 atoms

Performance: 5288302.459 tau/day, 6120.720 timesteps/s
412.5% CPU use with 1 MPI tasks x 16 OpenMP threads

MPI task timing breakdown:
Section |  min time  |  avg time  |  max time  |%varavg| %total
---------------------------------------------------------------
Pair    | 1.3456e-05 | 1.3456e-05 | 1.3456e-05 |   0.0 |  0.08
Bond    | 0.0047785  | 0.0047785  | 0.0047785  |   0.0 | 29.25
Neigh   | 2.8687e-05 | 2.8687e-05 | 2.8687e-05 |   0.0 |  0.18
Comm    | 1.8249e-05 | 1.8249e-05 | 1.8249e-05 |   0.0 |  0.11
Output  | 0.0007282  | 0.0007282  | 0.0007282  |   0.0 |  4.46
Modify  | 0.010722   | 0.010722   | 0.010722   |   0.0 | 65.62
Other   |            | 4.919e-05  |            |       |  0.30

Nlocal:        46.0000 ave          46 max          46 min
Histogram: 1 0 0 0 0 0 0 0 0 0
Nghost:        0.00000 ave           0 max           0 min
Histogram: 1 0 0 0 0 0 0 0 0 0
Neighs:        15.0000 ave          15 max          15 min
Histogram: 1 0 0 0 0 0 0 0 0 0

Total # of neighbors = 15
Ave neighs/atom = 0.32608696
Ave special neighs/atom = 0.0000000
Neighbor list builds = 1
Dangerous builds = 1

# delate all atoms in garbage
delete_atoms group garbage bond yes mol yes
WARNING: Ignoring 'compress yes' for molecular system (src/delete_atoms.cpp:125)
Deleted 0 atoms, new total = 46

# jump to loop lable until step > 0
next step
jump SELF loop
variable step loop ${duration}   # loop length
variable step loop 500   

# create new atoms only if new bonds have been made
# the num of new atoms is linked to the number of new bonds as follow:
variable newatoms equal floor(${bondcounter}/2)
variable newatoms equal floor(0/2)
if "${bondcounter} > 0" then    "fix depositatoms all deposit ${newatoms} 3 1 5748 region box near 2.0"
# fix ID group-ID deposit N type M seed keyword values

# assing all atoms that have a bond to the garbage group
group garbage dynamic all every 1 var hasbond
dynamic group garbage defined

# append new values on dump file
dump_modify 1 append yes

# perform n steps in loop
run 100
Last active /omp style is bond_style harmonic/omp
WARNING: One or more dynamic groups may not be updated at correct point in timestep (src/fix_group.cpp:172)
Per MPI rank memory allocation (min/avg/max) = 28.33 | 28.33 | 28.33 Mbytes
Step Temp PotEng v_bondcounter 
   49700    280.27417            0            0 
   49800    254.32018            0            0 
Loop time of 0.0171202 on 16 procs for 100 steps with 46 atoms

Performance: 5046666.478 tau/day, 5841.049 timesteps/s
377.3% CPU use with 1 MPI tasks x 16 OpenMP threads

MPI task timing breakdown:
Section |  min time  |  avg time  |  max time  |%varavg| %total
---------------------------------------------------------------
Pair    | 1.7828e-05 | 1.7828e-05 | 1.7828e-05 |   0.0 |  0.10
Bond    | 0.0058826  | 0.0058826  | 0.0058826  |   0.0 | 34.36
Neigh   | 2.6361e-05 | 2.6361e-05 | 2.6361e-05 |   0.0 |  0.15
Comm    | 1.86e-05   | 1.86e-05   | 1.86e-05   |   0.0 |  0.11
Output  | 0.00070497 | 0.00070497 | 0.00070497 |   0.0 |  4.12
Modify  | 0.010418   | 0.010418   | 0.010418   |   0.0 | 60.85
Other   |            | 5.229e-05  |            |       |  0.31

Nlocal:        46.0000 ave          46 max          46 min
Histogram: 1 0 0 0 0 0 0 0 0 0
Nghost:        0.00000 ave           0 max           0 min
Histogram: 1 0 0 0 0 0 0 0 0 0
Neighs:        16.0000 ave          16 max          16 min
Histogram: 1 0 0 0 0 0 0 0 0 0

Total # of neighbors = 16
Ave neighs/atom = 0.34782609
Ave special neighs/atom = 0.0000000
Neighbor list builds = 1
Dangerous builds = 1

# delate all atoms in garbage
delete_atoms group garbage bond yes mol yes
WARNING: Ignoring 'compress yes' for molecular system (src/delete_atoms.cpp:125)
Deleted 0 atoms, new total = 46

# jump to loop lable until step > 0
next step
jump SELF loop
variable step loop ${duration}   # loop length
variable step loop 500   

# create new atoms only if new bonds have been made
# the num of new atoms is linked to the number of new bonds as follow:
variable newatoms equal floor(${bondcounter}/2)
variable newatoms equal floor(0/2)
if "${bondcounter} > 0" then    "fix depositatoms all deposit ${newatoms} 3 1 5748 region box near 2.0"
# fix ID group-ID deposit N type M seed keyword values

# assing all atoms that have a bond to the garbage group
group garbage dynamic all every 1 var hasbond
dynamic group garbage defined

# append new values on dump file
dump_modify 1 append yes

# perform n steps in loop
run 100
Last active /omp style is bond_style harmonic/omp
WARNING: One or more dynamic groups may not be updated at correct point in timestep (src/fix_group.cpp:172)
Per MPI rank memory allocation (min/avg/max) = 28.33 | 28.33 | 28.33 Mbytes
Step Temp PotEng v_bondcounter 
   49800    254.32018            0            0 
   49900    241.26475            0            0 
Loop time of 0.0151185 on 16 procs for 100 steps with 46 atoms

Performance: 5714856.066 tau/day, 6614.417 timesteps/s
329.6% CPU use with 1 MPI tasks x 16 OpenMP threads

MPI task timing breakdown:
Section |  min time  |  avg time  |  max time  |%varavg| %total
---------------------------------------------------------------
Pair    | 1.2926e-05 | 1.2926e-05 | 1.2926e-05 |   0.0 |  0.09
Bond    | 0.005655   | 0.005655   | 0.005655   |   0.0 | 37.40
Neigh   | 2.9161e-05 | 2.9161e-05 | 2.9161e-05 |   0.0 |  0.19
Comm    | 1.7085e-05 | 1.7085e-05 | 1.7085e-05 |   0.0 |  0.11
Output  | 0.00068996 | 0.00068996 | 0.00068996 |   0.0 |  4.56
Modify  | 0.0086615  | 0.0086615  | 0.0086615  |   0.0 | 57.29
Other   |            | 5.286e-05  |            |       |  0.35

Nlocal:        46.0000 ave          46 max          46 min
Histogram: 1 0 0 0 0 0 0 0 0 0
Nghost:        0.00000 ave           0 max           0 min
Histogram: 1 0 0 0 0 0 0 0 0 0
Neighs:        15.0000 ave          15 max          15 min
Histogram: 1 0 0 0 0 0 0 0 0 0

Total # of neighbors = 15
Ave neighs/atom = 0.32608696
Ave special neighs/atom = 0.0000000
Neighbor list builds = 1
Dangerous builds = 1

# delate all atoms in garbage
delete_atoms group garbage bond yes mol yes
WARNING: Ignoring 'compress yes' for molecular system (src/delete_atoms.cpp:125)
Deleted 0 atoms, new total = 46

# jump to loop lable until step > 0
next step
jump SELF loop
variable step loop ${duration}   # loop length
variable step loop 500   

# create new atoms only if new bonds have been made
# the num of new atoms is linked to the number of new bonds as follow:
variable newatoms equal floor(${bondcounter}/2)
variable newatoms equal floor(0/2)
if "${bondcounter} > 0" then    "fix depositatoms all deposit ${newatoms} 3 1 5748 region box near 2.0"
# fix ID group-ID deposit N type M seed keyword values

# assing all atoms that have a bond to the garbage group
group garbage dynamic all every 1 var hasbond
dynamic group garbage defined

# append new values on dump file
dump_modify 1 append yes

# perform n steps in loop
run 100
Last active /omp style is bond_style harmonic/omp
WARNING: One or more dynamic groups may not be updated at correct point in timestep (src/fix_group.cpp:172)
Per MPI rank memory allocation (min/avg/max) = 28.33 | 28.33 | 28.33 Mbytes
Step Temp PotEng v_bondcounter 
   49900    241.26475            0            0 
   50000    268.71121            0            0 
Loop time of 0.017199 on 16 procs for 100 steps with 46 atoms

Performance: 5023558.104 tau/day, 5814.303 timesteps/s
355.7% CPU use with 1 MPI tasks x 16 OpenMP threads

MPI task timing breakdown:
Section |  min time  |  avg time  |  max time  |%varavg| %total
---------------------------------------------------------------
Pair    | 1.3187e-05 | 1.3187e-05 | 1.3187e-05 |   0.0 |  0.08
Bond    | 0.0051451  | 0.0051451  | 0.0051451  |   0.0 | 29.92
Neigh   | 2.2839e-05 | 2.2839e-05 | 2.2839e-05 |   0.0 |  0.13
Comm    | 2.5025e-05 | 2.5025e-05 | 2.5025e-05 |   0.0 |  0.15
Output  | 0.00071827 | 0.00071827 | 0.00071827 |   0.0 |  4.18
Modify  | 0.011216   | 0.011216   | 0.011216   |   0.0 | 65.21
Other   |            | 5.864e-05  |            |       |  0.34

Nlocal:        46.0000 ave          46 max          46 min
Histogram: 1 0 0 0 0 0 0 0 0 0
Nghost:        0.00000 ave           0 max           0 min
Histogram: 1 0 0 0 0 0 0 0 0 0
Neighs:        17.0000 ave          17 max          17 min
Histogram: 1 0 0 0 0 0 0 0 0 0

Total # of neighbors = 17
Ave neighs/atom = 0.36956522
Ave special neighs/atom = 0.0000000
Neighbor list builds = 1
Dangerous builds = 1

# delate all atoms in garbage
delete_atoms group garbage bond yes mol yes
WARNING: Ignoring 'compress yes' for molecular system (src/delete_atoms.cpp:125)
Deleted 0 atoms, new total = 46

# jump to loop lable until step > 0
next step
jump SELF loop

# end of loop
label break

# check on input variables
variable total_atoms equal ${num_atoms}*2
variable total_atoms equal 40*2
print ""

print "Starting Atoms: ${total_atoms}"
Starting Atoms: 80
print "Duration: ${duration}"
Duration: 500
print "ALL DONE"
ALL DONE




Total wall time: 0:00:08
