LAMMPS (29 Oct 2020)
  using 16 OpenMP thread(s) per MPI task
package omp 0
using multi-threaded neighbor list subroutines
# Agent Based Simulation Of Biological Systems

# remove previous dump file
shell rm dump.out
shell rm dump.foo
WARNING: Shell command 'rm' failed with error 'No such file or directory' (src/input.cpp:1218)
shell rm dump.bar
WARNING: Shell command 'rm' failed with error 'No such file or directory' (src/input.cpp:1218)

#       --- SET UP OF INPUT VARIABLES ---

#
variable rnseed index 10
variable probability equal ceil(random(1,100,${rnseed}))
variable probability equal ceil(random(1,100,10))

# duration : int = N number of steps for the current run
variable time index 50  #default value
variable duration equal ${time}
variable duration equal 50

#       --- SIMULATION BOX PROPERTIES ---

# sym measure units and atoms style
units       lj
atom_style  full

# box dimension, boudaries and structure
dimension   3
boundary    f f f
lattice     fcc 3.52
Lattice spacing in x,y,z = 1.0435320 1.0435320 1.0435320

# flag2 = on or off for bonded interactions
newton on off

# define simulation box
region      box block 0 30 0 30 0 30
create_box  3 box  bond/types 1 extra/bond/per/atom 10
Created orthogonal box = (0.0000000 0.0000000 0.0000000) to (31.305960 31.305960 31.305960)
  1 by 1 by 1 MPI processor grid

# create simulation walls
fix xwalls all wall/reflect xlo EDGE xhi EDGE
fix ywalls all wall/reflect ylo EDGE yhi EDGE
fix zwalls all wall/reflect zlo EDGE zhi EDGE

#       --- ATOMS PROPRETIES AND FORCE FIELDS ---

# creation of atoms of 2 types in randoms spots
create_atoms    1 random 5 5783 box
Created 5 atoms
  create_atoms CPU = 0.001 seconds
create_atoms    2 random 5 7483 box
Created 5 atoms
  create_atoms CPU = 0.000 seconds

# atoms mass
mass 1 10.948
mass 2 10.467
mass 3 10.578   # new atoms generated by type 1-2 bond

# assing atoms to cerian groups
group g1 type 1
5 atoms in group g1
group g2 type 2
5 atoms in group g2
group agents  union g1 g2
10 atoms in group agents

# force fields style and coefficient
pair_style zero 5.0
pair_coeff * *

# bond style and coefficients
bond_style  harmonic
bond_coeff * 100 1.1

#       --- SIMULATION ---

# set time steps
timestep 0.01   # seconds

# This command sets parameters that affect
# the building of pairwise neighbor lists
neighbor 0.001 bin
neigh_modify every 10 delay 100

# print thermodinamic inf every N timesteps
thermo 100

# fix ID group-ID bond/create Nevery itype jtype Rmin bondtype keyword values
# this fix will attempt to create new bond btw atoms of
# type 1 and 2 every Nevery timestep
fix bonds all bond/create 10 1 2 1.0 1 prob 0.9 85784

# set velocity for all atoms
velocity all create 300.0 4928459 rot yes dist gaussian

# perform plain time integration
# to update position and velocity
# and simulate Brownioan motion
fix 1 all nve
fix 2 all langevin 1.0 1.0 10.0 904297

# compute if atoms has a bonds
# and total number of bonds btw all atoms
compute 1 agents property/atom nbonds
compute 2 agents reduce sum c_1
thermo_style custom step temp pe c_2
run 0
Last active /omp style is bond_style harmonic/omp
Neighbor list info ...
  update every 10 steps, delay 100 steps, check yes
  max neighbors/atom: 2000, page size: 100000
  master list distance cutoff = 5.001
  ghost atom cutoff = 5.001
  binsize = 2.5005, bins = 13 13 13
  2 neighbor lists, perpetual/occasional/extra = 1 1 0
  (1) pair zero, perpetual
      attributes: half, newton on, omp
      pair build: half/bin/newton/omp
      stencil: half/bin/3d/newton
      bin: standard
  (2) fix bond/create, occasional, copy from (1)
      attributes: half, newton on
      pair build: copy
      stencil: none
      bin: none
Per MPI rank memory allocation (min/avg/max) = 20.73 | 20.73 | 20.73 Mbytes
Step Temp PotEng c_2 
       0          300            0            0 
Loop time of 5.7e-07 on 16 procs for 0 steps with 10 atoms

0.0% CPU use with 1 MPI tasks x 16 OpenMP threads

MPI task timing breakdown:
Section |  min time  |  avg time  |  max time  |%varavg| %total
---------------------------------------------------------------
Pair    | 0          | 0          | 0          |   0.0 |  0.00
Bond    | 0          | 0          | 0          |   0.0 |  0.00
Neigh   | 0          | 0          | 0          |   0.0 |  0.00
Comm    | 0          | 0          | 0          |   0.0 |  0.00
Output  | 0          | 0          | 0          |   0.0 |  0.00
Modify  | 0          | 0          | 0          |   0.0 |  0.00
Other   |            | 5.7e-07    |            |       |100.00

Nlocal:        10.0000 ave          10 max          10 min
Histogram: 1 0 0 0 0 0 0 0 0 0
Nghost:        0.00000 ave           0 max           0 min
Histogram: 1 0 0 0 0 0 0 0 0 0
Neighs:        0.00000 ave           0 max           0 min
Histogram: 1 0 0 0 0 0 0 0 0 0

Total # of neighbors = 0
Ave neighs/atom = 0.0000000
Ave special neighs/atom = 0.0000000
Neighbor list builds = 0
Dangerous builds = 0
# this lines are necessary to insure that the “hasbond” and "newatoms"
# variables are current when the group command invokes it.

# hasbond : boolean = true if atom I has a bond with atom J
variable hasbond atom "c_1 > 0.0"

# bondcounter : int = N total number of bonds in the sim
variable bondcounter equal ceil(c_2)

# print themo info every timestep
thermo_style custom step temp pe v_bondcounter

# dumps atoms information
dump 1 all custom 10 dump.out id x y z type

#       --- LOOP---

label loop
variable step loop ${duration}
variable step loop 50

variable newatoms equal ${bondcounter}/2
variable newatoms equal 0/2
if "${bondcounter} > 0" then    "fix depositatoms all deposit ${newatoms} 3 1 5748 region box near 2.0"
# fix ID group-ID deposit N type M seed keyword values
#fix depositatoms all deposit 1 3 1 5748 region box near 0.1

# assing all atoms that have a bond to the garbage group
group garbage dynamic all every 1 var hasbond
dynamic group garbage defined

# append new values on dump file
dump_modify 1 append yes

# perform n steps in loop
run 5000
Last active /omp style is bond_style harmonic/omp
WARNING: One or more dynamic groups may not be updated at correct point in timestep (src/fix_group.cpp:172)
Per MPI rank memory allocation (min/avg/max) = 22.11 | 22.11 | 22.11 Mbytes
Step Temp PotEng v_bondcounter 
       0          300            0            0 
     100    249.73178            0            0 
     200    207.22733            0            0 
     300    169.18514            0            0 
     400    140.82169            0            0 
     500    120.68814   0.23138973            2 
     600    91.003023    7.7940129            2 
     700    71.202114    10.931089            2 
     800    64.929057     1.745213            2 
     900    56.146332   0.71024455            2 
    1000    43.937008    4.2381593            2 
    1100    33.151918    5.8695195            2 
    1200    27.286095    5.6326183            2 
    1300     21.99794    3.9752058            2 
    1400    19.569235    3.5598203            2 
    1500    16.594427     2.658792            2 
    1600    14.214759    1.7866851            2 
    1700    12.220985    1.2729501            2 
    1800    10.100214    1.3352802            2 
    1900    8.1472465    1.9943486            2 
    2000    8.6369768   0.59632652            2 
    2100    7.3847173 0.00024890818            2 
    2200    5.9159517   0.10485924            2 
    2300    5.1263013 0.00011974655            2 
    2400    4.5411042   0.38770995            2 
    2500    3.6054205   0.86242548            2 
    2600    2.8517078    1.5104844            2 
    2700    2.9140882   0.91296446            2 
    2800     2.472849   0.29812572            2 
    2900    2.4095944   0.17601647            2 
    3000    2.4046219  0.055558488            2 
    3100    2.1922529 0.0078558115            2 
    3200    2.0315273 0.00080371613            2 
    3300    1.8372371 0.0049861581            2 
    3400    1.3762044   0.01850024            2 
    3500    1.4064197  0.021473232            2 
    3600    1.1523573 0.0037313581            2 
    3700    1.1705478 0.00016206056            2 
    3800   0.99310978 0.0013148041            2 
    3900   0.90336025 0.00052051255            2 
    4000   0.88251144 4.9057455e-05            2 
    4100   0.80974677 0.0016098553            2 
    4200    1.0381613 3.3882258e-06            2 
    4300   0.94198784 0.00044898058            2 
    4400    1.0969252 0.0061209254            2 
    4500    1.1483375  0.016048705            2 
    4600    1.3341091  0.035652273            2 
    4700     1.367367  0.013378673            2 
    4800    1.3573821  0.030751107            2 
    4900    1.2639089  0.015473879            2 
    5000    1.3828983   0.01125566            2 
Loop time of 0.664905 on 16 procs for 5000 steps with 10 atoms

Performance: 6497169.970 tau/day, 7519.873 timesteps/s
426.5% CPU use with 1 MPI tasks x 16 OpenMP threads

MPI task timing breakdown:
Section |  min time  |  avg time  |  max time  |%varavg| %total
---------------------------------------------------------------
Pair    | 0.0004631  | 0.0004631  | 0.0004631  |   0.0 |  0.07
Bond    | 0.22344    | 0.22344    | 0.22344    |   0.0 | 33.60
Neigh   | 0.0017269  | 0.0017269  | 0.0017269  |   0.0 |  0.26
Comm    | 0.00096321 | 0.00096321 | 0.00096321 |   0.0 |  0.14
Output  | 0.013908   | 0.013908   | 0.013908   |   0.0 |  2.09
Modify  | 0.42203    | 0.42203    | 0.42203    |   0.0 | 63.47
Other   |            | 0.002369   |            |       |  0.36

Nlocal:        10.0000 ave          10 max          10 min
Histogram: 1 0 0 0 0 0 0 0 0 0
Nghost:        0.00000 ave           0 max           0 min
Histogram: 1 0 0 0 0 0 0 0 0 0
Neighs:        2.00000 ave           2 max           2 min
Histogram: 1 0 0 0 0 0 0 0 0 0

Total # of neighbors = 2
Ave neighs/atom = 0.2
Ave special neighs/atom = 0.2
Neighbor list builds = 50
Dangerous builds = 49

# delate all atoms in garbage
delete_atoms group garbage bond yes mol yes
WARNING: Ignoring 'compress yes' for molecular system (src/delete_atoms.cpp:125)
Deleted 2 atoms, new total = 8
Deleted 1 bonds, new total = 0

# jump to loop lable until step > 0
next step
jump SELF loop
variable step loop ${duration}
variable step loop 50

variable newatoms equal ${bondcounter}/2
variable newatoms equal 2/2
if "${bondcounter} > 0" then    "fix depositatoms all deposit ${newatoms} 3 1 5748 region box near 2.0"
fix depositatoms all deposit ${newatoms} 3 1 5748 region box near 2.0
fix depositatoms all deposit 1 3 1 5748 region box near 2.0
# fix ID group-ID deposit N type M seed keyword values
#fix depositatoms all deposit 1 3 1 5748 region box near 0.1

# assing all atoms that have a bond to the garbage group
group garbage dynamic all every 1 var hasbond
dynamic group garbage defined

# append new values on dump file
dump_modify 1 append yes

# perform n steps in loop
run 5000
Last active /omp style is bond_style harmonic/omp
WARNING: One or more dynamic groups may not be updated at correct point in timestep (src/fix_group.cpp:172)
Per MPI rank memory allocation (min/avg/max) = 28.33 | 28.33 | 28.33 Mbytes
Step Temp PotEng v_bondcounter 
    5000    1.2917793            0            0 
    5100    1.2697268            0            0 
    5200    1.2047802            0            0 
    5300   0.86191099            0            0 
    5400    1.0256426            0            0 
    5500   0.86372396            0            0 
    5600   0.93941762            0            0 
    5700   0.87526285            0            0 
    5800   0.69549337            0            0 
    5900   0.77573524            0            0 
    6000    0.9831055            0            0 
    6100    1.1740957            0            0 
    6200     1.182918            0            0 
    6300    1.9476189            0            0 
    6400    2.0685998            0            0 
    6500    1.9400944            0            0 
    6600    1.5122142            0            0 
    6700    1.4326904            0            0 
    6800    1.1447085            0            0 
    6900    1.3017757            0            0 
    7000    1.1841429            0            0 
    7100    1.2829703            0            0 
    7200    1.5440986            0            0 
    7300    1.9427466            0            0 
    7400    1.8244768            0            0 
    7500    1.5600119            0            0 
    7600    1.5719113            0            0 
    7700     1.258212            0            0 
    7800    1.1144703            0            0 
    7900    1.0449948            0            0 
    8000    1.4345094            0            0 
    8100    1.9129916            0            0 
    8200    2.1884362            0            0 
    8300    1.8599007            0            0 
    8400    1.4247066            0            0 
    8500     1.288533            0            0 
    8600    1.2303335            0            0 
    8700    1.2359714            0            0 
    8800    1.5319014            0            0 
    8900    1.8039882            0            0 
    9000    2.0890561            0            0 
    9100    1.9967985            0            0 
    9200     1.728918            0            0 
    9300    1.5960101            0            0 
    9400    1.3540034            0            0 
    9500    1.5446221            0            0 
    9600     1.429585            0            0 
    9700    1.7890447            0            0 
    9800     1.594622            0            0 
    9900    1.3365753            0            0 
   10000    1.4378653            0            0 
Loop time of 0.653326 on 16 procs for 5000 steps with 9 atoms

Performance: 6612316.588 tau/day, 7653.144 timesteps/s
415.2% CPU use with 1 MPI tasks x 16 OpenMP threads

MPI task timing breakdown:
Section |  min time  |  avg time  |  max time  |%varavg| %total
---------------------------------------------------------------
Pair    | 0.00047918 | 0.00047918 | 0.00047918 |   0.0 |  0.07
Bond    | 0.21717    | 0.21717    | 0.21717    |   0.0 | 33.24
Neigh   | 0.0017271  | 0.0017271  | 0.0017271  |   0.0 |  0.26
Comm    | 0.00093637 | 0.00093637 | 0.00093637 |   0.0 |  0.14
Output  | 0.013349   | 0.013349   | 0.013349   |   0.0 |  2.04
Modify  | 0.41691    | 0.41691    | 0.41691    |   0.0 | 63.81
Other   |            | 0.002759   |            |       |  0.42

Nlocal:        9.00000 ave           9 max           9 min
Histogram: 1 0 0 0 0 0 0 0 0 0
Nghost:        0.00000 ave           0 max           0 min
Histogram: 1 0 0 0 0 0 0 0 0 0
Neighs:        1.00000 ave           1 max           1 min
Histogram: 1 0 0 0 0 0 0 0 0 0

Total # of neighbors = 1
Ave neighs/atom = 0.11111111
Ave special neighs/atom = 0.0000000
Neighbor list builds = 50
Dangerous builds = 49

# delate all atoms in garbage
delete_atoms group garbage bond yes mol yes
WARNING: Ignoring 'compress yes' for molecular system (src/delete_atoms.cpp:125)
Deleted 0 atoms, new total = 9

# jump to loop lable until step > 0
next step
jump SELF loop
variable step loop ${duration}
variable step loop 50

variable newatoms equal ${bondcounter}/2
variable newatoms equal 0/2
if "${bondcounter} > 0" then    "fix depositatoms all deposit ${newatoms} 3 1 5748 region box near 2.0"
# fix ID group-ID deposit N type M seed keyword values
#fix depositatoms all deposit 1 3 1 5748 region box near 0.1

# assing all atoms that have a bond to the garbage group
group garbage dynamic all every 1 var hasbond
dynamic group garbage defined

# append new values on dump file
dump_modify 1 append yes

# perform n steps in loop
run 5000
Last active /omp style is bond_style harmonic/omp
WARNING: One or more dynamic groups may not be updated at correct point in timestep (src/fix_group.cpp:172)
Per MPI rank memory allocation (min/avg/max) = 28.33 | 28.33 | 28.33 Mbytes
Step Temp PotEng v_bondcounter 
   10000    1.2581321            0            0 
   10100     1.313473            0            0 
   10200    1.0227123            0            0 
   10300   0.96861977            0            0 
   10400    1.1108697            0            0 
   10500     1.198509            0            0 
   10600   0.84699734            0            0 
   10700   0.86502821            0            0 
   10800   0.81123195            0            0 
   10900   0.43994116            0            0 
   11000    0.5272802            0            0 
   11100   0.58550787            0            0 
   11200   0.75795148            0            0 
   11300   0.86796526            0            0 
   11400   0.88278545            0            0 
   11500   0.70676198            0            0 
   11600   0.79922129            0            0 
   11700   0.69170786            0            0 
   11800   0.88179417            0            0 
   11900    1.2464014            0            0 
   12000    1.3472014            0            0 
   12100    1.0280859            0            0 
   12200    1.4025017            0            0 
   12300    1.4899167            0            0 
   12400    1.3971523            0            0 
   12500    1.4805411            0            0 
   12600    1.2569936            0            0 
   12700    1.2235865            0            0 
   12800    1.0486787            0            0 
   12900    1.3511167            0            0 
   13000    1.5205745            0            0 
   13100    1.4167311            0            0 
   13200    1.5623265            0            0 
   13300    1.6037739            0            0 
   13400    1.2798189            0            0 
   13500    1.2218974            0            0 
   13600    1.1246788            0            0 
   13700    1.1101061            0            0 
   13800   0.96058555            0            0 
   13900   0.70897426            0            0 
   14000   0.74513414            0            0 
   14100   0.62920571            0            0 
   14200   0.74067055            0            0 
   14300   0.64524779            0            0 
   14400   0.94114324            0            0 
   14500    1.1465441            0            0 
   14600    1.0859052            0            0 
   14700   0.95854527            0            0 
   14800   0.79255741            0            0 
   14900   0.79699106            0            0 
   15000   0.77079489            0            0 
Loop time of 0.650876 on 16 procs for 5000 steps with 9 atoms

Performance: 6637208.747 tau/day, 7681.955 timesteps/s
442.5% CPU use with 1 MPI tasks x 16 OpenMP threads

MPI task timing breakdown:
Section |  min time  |  avg time  |  max time  |%varavg| %total
---------------------------------------------------------------
Pair    | 0.00048949 | 0.00048949 | 0.00048949 |   0.0 |  0.08
Bond    | 0.2182     | 0.2182     | 0.2182     |   0.0 | 33.52
Neigh   | 0.0014484  | 0.0014484  | 0.0014484  |   0.0 |  0.22
Comm    | 0.00094615 | 0.00094615 | 0.00094615 |   0.0 |  0.15
Output  | 0.013474   | 0.013474   | 0.013474   |   0.0 |  2.07
Modify  | 0.41405    | 0.41405    | 0.41405    |   0.0 | 63.61
Other   |            | 0.002269   |            |       |  0.35

Nlocal:        9.00000 ave           9 max           9 min
Histogram: 1 0 0 0 0 0 0 0 0 0
Nghost:        0.00000 ave           0 max           0 min
Histogram: 1 0 0 0 0 0 0 0 0 0
Neighs:        0.00000 ave           0 max           0 min
Histogram: 1 0 0 0 0 0 0 0 0 0

Total # of neighbors = 0
Ave neighs/atom = 0.0000000
Ave special neighs/atom = 0.0000000
Neighbor list builds = 50
Dangerous builds = 50

# delate all atoms in garbage
delete_atoms group garbage bond yes mol yes
WARNING: Ignoring 'compress yes' for molecular system (src/delete_atoms.cpp:125)
Deleted 0 atoms, new total = 9

# jump to loop lable until step > 0
next step
jump SELF loop
variable step loop ${duration}
variable step loop 50

variable newatoms equal ${bondcounter}/2
variable newatoms equal 0/2
if "${bondcounter} > 0" then    "fix depositatoms all deposit ${newatoms} 3 1 5748 region box near 2.0"
# fix ID group-ID deposit N type M seed keyword values
#fix depositatoms all deposit 1 3 1 5748 region box near 0.1

# assing all atoms that have a bond to the garbage group
group garbage dynamic all every 1 var hasbond
dynamic group garbage defined

# append new values on dump file
dump_modify 1 append yes

# perform n steps in loop
run 5000
Last active /omp style is bond_style harmonic/omp
WARNING: One or more dynamic groups may not be updated at correct point in timestep (src/fix_group.cpp:172)
Per MPI rank memory allocation (min/avg/max) = 28.33 | 28.33 | 28.33 Mbytes
Step Temp PotEng v_bondcounter 
   15000   0.77079489            0            0 
   15100   0.60364074            0            0 
   15200   0.70971025            0            0 
   15300   0.95487397            0            0 
   15400    1.5618134            0            0 
   15500    1.3660553            0            0 
   15600    1.0262826            0            0 
   15700    1.0161495            0            0 
   15800   0.82464728            0            0 
   15900   0.52747691            0            0 
   16000   0.58384416            0            0 
   16100   0.64965465            0            0 
   16200   0.82920599            0            0 
   16300   0.74059044            0            0 
   16400   0.85662428            0            0 
   16500   0.71682643            0            0 
   16600   0.69403287            0            0 
   16700   0.66780937            0            0 
   16800   0.68520439            0            0 
   16900   0.69058762            0            0 
   17000   0.57382964            0            0 
   17100   0.61475217            0            0 
   17200   0.79845884            0            0 
   17300   0.97123355            0            0 
   17400   0.88025017            0            0 
   17500    0.7336218            0            0 
   17600    0.9008166            0            0 
   17700    1.3457682            0            0 
   17800    1.3724299            0            0 
   17900    1.2717057            0            0 
   18000    1.2131776            0            0 
   18100    1.3291002            0            0 
   18200    1.4788907            0            0 
   18300    1.3494113            0            0 
   18400    1.2809907            0            0 
   18500       1.1629            0            0 
   18600    1.1200383            0            0 
   18700   0.96477953            0            0 
   18800    1.0965867            0            0 
   18900   0.78900347            0            0 
   19000     1.022156            0            0 
   19100   0.76752193            0            0 
   19200   0.86811216            0            0 
   19300   0.90389227            0            0 
   19400   0.80717992            0            0 
   19500    1.2821037            0            0 
   19600    1.2094634            0            0 
   19700    1.0119139            0            0 
   19800    1.0858734            0            0 
   19900    1.0459098            0            0 
   20000    1.2998532            0            0 
Loop time of 0.651237 on 16 procs for 5000 steps with 9 atoms

Performance: 6633533.925 tau/day, 7677.701 timesteps/s
430.4% CPU use with 1 MPI tasks x 16 OpenMP threads

MPI task timing breakdown:
Section |  min time  |  avg time  |  max time  |%varavg| %total
---------------------------------------------------------------
Pair    | 0.00048635 | 0.00048635 | 0.00048635 |   0.0 |  0.07
Bond    | 0.21699    | 0.21699    | 0.21699    |   0.0 | 33.32
Neigh   | 0.0018016  | 0.0018016  | 0.0018016  |   0.0 |  0.28
Comm    | 0.00096876 | 0.00096876 | 0.00096876 |   0.0 |  0.15
Output  | 0.0133     | 0.0133     | 0.0133     |   0.0 |  2.04
Modify  | 0.41534    | 0.41534    | 0.41534    |   0.0 | 63.78
Other   |            | 0.002346   |            |       |  0.36

Nlocal:        9.00000 ave           9 max           9 min
Histogram: 1 0 0 0 0 0 0 0 0 0
Nghost:        0.00000 ave           0 max           0 min
Histogram: 1 0 0 0 0 0 0 0 0 0
Neighs:        1.00000 ave           1 max           1 min
Histogram: 1 0 0 0 0 0 0 0 0 0

Total # of neighbors = 1
Ave neighs/atom = 0.11111111
Ave special neighs/atom = 0.0000000
Neighbor list builds = 50
Dangerous builds = 50

# delate all atoms in garbage
delete_atoms group garbage bond yes mol yes
WARNING: Ignoring 'compress yes' for molecular system (src/delete_atoms.cpp:125)
Deleted 0 atoms, new total = 9

# jump to loop lable until step > 0
next step
jump SELF loop
variable step loop ${duration}
variable step loop 50

variable newatoms equal ${bondcounter}/2
variable newatoms equal 0/2
if "${bondcounter} > 0" then    "fix depositatoms all deposit ${newatoms} 3 1 5748 region box near 2.0"
# fix ID group-ID deposit N type M seed keyword values
#fix depositatoms all deposit 1 3 1 5748 region box near 0.1

# assing all atoms that have a bond to the garbage group
group garbage dynamic all every 1 var hasbond
dynamic group garbage defined

# append new values on dump file
dump_modify 1 append yes

# perform n steps in loop
run 5000
Last active /omp style is bond_style harmonic/omp
WARNING: One or more dynamic groups may not be updated at correct point in timestep (src/fix_group.cpp:172)
Per MPI rank memory allocation (min/avg/max) = 28.33 | 28.33 | 28.33 Mbytes
Step Temp PotEng v_bondcounter 
   20000    1.2998532            0            0 
   20100    1.5766331            0            0 
   20200    1.5860482            0            0 
   20300    1.3343195            0            0 
   20400    1.1824395            0            0 
   20500     1.501423            0            0 
   20600    1.1820233            0            0 
   20700    1.2467146            0            0 
   20800    1.4299724            0            0 
   20900    1.1765172            0            0 
   21000    1.3071982            0            0 
   21100    1.2792156            0            0 
   21200     1.433713            0            0 
   21300    1.0055221            0            0 
   21400    1.0210567            0            0 
   21500    1.1393333            0            0 
   21600    0.7447782            0            0 
   21700   0.90309085            0            0 
   21800   0.94175241            0            0 
   21900   0.88875391            0            0 
   22000    1.0558471            0            0 
   22100    1.0292794            0            0 
   22200   0.98871302            0            0 
   22300    1.2080546            0            0 
   22400    1.1963218            0            0 
   22500   0.99737532            0            0 
   22600    1.2139686            0            0 
   22700    1.4780507            0            0 
   22800     1.610056            0            0 
   22900    1.8560809            0            0 
   23000     1.661244            0            0 
   23100    1.9490427            0            0 
   23200    1.9750138            0            0 
   23300    2.0961138            0            0 
   23400    1.7355884            0            0 
   23500    1.5241469            0            0 
   23600    1.3186231            0            0 
   23700    1.2231762            0            0 
   23800    1.1206713            0            0 
   23900     1.102904            0            0 
   24000   0.91173331            0            0 
   24100    1.0875647            0            0 
   24200    1.0659612            0            0 
   24300    1.0716616            0            0 
   24400   0.99389841            0            0 
   24500    1.3742192            0            0 
   24600    1.2629664            0            0 
   24700   0.94805665            0            0 
   24800   0.89338693            0            0 
   24900    1.2323813            0            0 
   25000    1.4166507            0            0 
Loop time of 0.650433 on 16 procs for 5000 steps with 9 atoms

Performance: 6641730.147 tau/day, 7687.188 timesteps/s
436.6% CPU use with 1 MPI tasks x 16 OpenMP threads

MPI task timing breakdown:
Section |  min time  |  avg time  |  max time  |%varavg| %total
---------------------------------------------------------------
Pair    | 0.00046954 | 0.00046954 | 0.00046954 |   0.0 |  0.07
Bond    | 0.21514    | 0.21514    | 0.21514    |   0.0 | 33.08
Neigh   | 0.0014924  | 0.0014924  | 0.0014924  |   0.0 |  0.23
Comm    | 0.00097682 | 0.00097682 | 0.00097682 |   0.0 |  0.15
Output  | 0.013373   | 0.013373   | 0.013373   |   0.0 |  2.06
Modify  | 0.4166     | 0.4166     | 0.4166     |   0.0 | 64.05
Other   |            | 0.002384   |            |       |  0.37

Nlocal:        9.00000 ave           9 max           9 min
Histogram: 1 0 0 0 0 0 0 0 0 0
Nghost:        0.00000 ave           0 max           0 min
Histogram: 1 0 0 0 0 0 0 0 0 0
Neighs:        0.00000 ave           0 max           0 min
Histogram: 1 0 0 0 0 0 0 0 0 0

Total # of neighbors = 0
Ave neighs/atom = 0.0000000
Ave special neighs/atom = 0.0000000
Neighbor list builds = 50
Dangerous builds = 50

# delate all atoms in garbage
delete_atoms group garbage bond yes mol yes
WARNING: Ignoring 'compress yes' for molecular system (src/delete_atoms.cpp:125)
Deleted 0 atoms, new total = 9

# jump to loop lable until step > 0
next step
jump SELF loop
variable step loop ${duration}
variable step loop 50

variable newatoms equal ${bondcounter}/2
variable newatoms equal 0/2
if "${bondcounter} > 0" then    "fix depositatoms all deposit ${newatoms} 3 1 5748 region box near 2.0"
# fix ID group-ID deposit N type M seed keyword values
#fix depositatoms all deposit 1 3 1 5748 region box near 0.1

# assing all atoms that have a bond to the garbage group
group garbage dynamic all every 1 var hasbond
dynamic group garbage defined

# append new values on dump file
dump_modify 1 append yes

# perform n steps in loop
run 5000
Last active /omp style is bond_style harmonic/omp
WARNING: One or more dynamic groups may not be updated at correct point in timestep (src/fix_group.cpp:172)
Per MPI rank memory allocation (min/avg/max) = 28.33 | 28.33 | 28.33 Mbytes
Step Temp PotEng v_bondcounter 
   25000    1.4166507            0            0 
   25100    1.6845898            0            0 
   25200    1.5647534            0            0 
   25300    1.4321701            0            0 
   25400    1.5812267            0            0 
   25500    1.6903649            0            0 
   25600    1.4963865            0            0 
   25700    1.2777763            0            0 
   25800    1.7225275            0            0 
   25900    1.5109137            0            0 
   26000    1.7342261            0            0 
   26100    1.8877041            0            0 
   26200    1.8487098            0            0 
   26300    1.8634847            0            0 
   26400    1.4288538            0            0 
   26500    1.3229941            0            0 
   26600    1.6951818            0            0 
   26700    1.6235915            0            0 
   26800    1.6532859            0            0 
   26900    1.5490746            0            0 
   27000    1.4847996            0            0 
   27100    1.3544822            0            0 
   27200    1.2077648            0            0 
   27300    1.3133732            0            0 
   27400    1.1533508            0            0 
   27500    1.2524455            0            0 
   27600    1.4569218            0            0 
   27700    1.3055616            0            0 
   27800    1.3128135            0            0 
   27900    1.5031977            0            0 
   28000    1.1528115            0            0 
   28100    1.2519205            0            0 
   28200    1.3583648            0            0 
   28300    1.6346227            0            0 
   28400    1.6464543            0            0 
   28500    1.3270301            0            0 
   28600    1.3007302            0            0 
   28700    1.0830588            0            0 
   28800    1.0674954            0            0 
   28900   0.93069581            0            0 
   29000   0.92644026            0            0 
   29100   0.82871935            0            0 
   29200   0.76570794            0            0 
   29300   0.69503094            0            0 
   29400   0.82440367            0            0 
   29500   0.82296716            0            0 
   29600   0.75979395            0            0 
   29700   0.68133999            0            0 
   29800   0.84279793            0            0 
   29900   0.75590756            0            0 
   30000   0.77094231            0            0 
Loop time of 0.651582 on 16 procs for 5000 steps with 9 atoms

Performance: 6630017.251 tau/day, 7673.631 timesteps/s
429.1% CPU use with 1 MPI tasks x 16 OpenMP threads

MPI task timing breakdown:
Section |  min time  |  avg time  |  max time  |%varavg| %total
---------------------------------------------------------------
Pair    | 0.00047822 | 0.00047822 | 0.00047822 |   0.0 |  0.07
Bond    | 0.21359    | 0.21359    | 0.21359    |   0.0 | 32.78
Neigh   | 0.0022303  | 0.0022303  | 0.0022303  |   0.0 |  0.34
Comm    | 0.00095992 | 0.00095992 | 0.00095992 |   0.0 |  0.15
Output  | 0.01332    | 0.01332    | 0.01332    |   0.0 |  2.04
Modify  | 0.4186     | 0.4186     | 0.4186     |   0.0 | 64.24
Other   |            | 0.002409   |            |       |  0.37

Nlocal:        9.00000 ave           9 max           9 min
Histogram: 1 0 0 0 0 0 0 0 0 0
Nghost:        0.00000 ave           0 max           0 min
Histogram: 1 0 0 0 0 0 0 0 0 0
Neighs:        0.00000 ave           0 max           0 min
Histogram: 1 0 0 0 0 0 0 0 0 0

Total # of neighbors = 0
Ave neighs/atom = 0.0000000
Ave special neighs/atom = 0.0000000
Neighbor list builds = 50
Dangerous builds = 50

# delate all atoms in garbage
delete_atoms group garbage bond yes mol yes
WARNING: Ignoring 'compress yes' for molecular system (src/delete_atoms.cpp:125)
Deleted 0 atoms, new total = 9

# jump to loop lable until step > 0
next step
jump SELF loop
variable step loop ${duration}
variable step loop 50

variable newatoms equal ${bondcounter}/2
variable newatoms equal 0/2
if "${bondcounter} > 0" then    "fix depositatoms all deposit ${newatoms} 3 1 5748 region box near 2.0"
# fix ID group-ID deposit N type M seed keyword values
#fix depositatoms all deposit 1 3 1 5748 region box near 0.1

# assing all atoms that have a bond to the garbage group
group garbage dynamic all every 1 var hasbond
dynamic group garbage defined

# append new values on dump file
dump_modify 1 append yes

# perform n steps in loop
run 5000
Last active /omp style is bond_style harmonic/omp
WARNING: One or more dynamic groups may not be updated at correct point in timestep (src/fix_group.cpp:172)
Per MPI rank memory allocation (min/avg/max) = 28.33 | 28.33 | 28.33 Mbytes
Step Temp PotEng v_bondcounter 
   30000   0.77094231            0            0 
   30100   0.89554875            0            0 
   30200    1.1585523            0            0 
   30300    1.0516981            0            0 
   30400   0.97405126            0            0 
   30500   0.98269131            0            0 
   30600    1.3224437            0            0 
   30700    1.6157165            0            0 
   30800    1.3748462            0            0 
   30900    1.3975085            0            0 
   31000    1.4823161            0            0 
   31100    1.2240083            0            0 
   31200    1.2117611            0            0 
   31300    1.2136378            0            0 
   31400    1.0379565            0            0 
   31500   0.91811192            0            0 
   31600   0.79147733            0            0 
   31700   0.83563746            0            0 
   31800   0.87113243            0            0 
   31900    1.0924009            0            0 
   32000    1.2853347            0            0 
   32100    1.1227628            0            0 
   32200    1.0512843            0            0 
   32300    1.0641893            0            0 
   32400   0.95609447            0            0 
   32500    1.1651498            0            0 
   32600   0.87690084            0            0 
   32700    0.8432506            0            0 
   32800   0.88617433            0            0 
   32900   0.93779936            0            0 
   33000    1.1212403            0            0 
   33100    1.4108239            0            0 
   33200    1.5010357            0            0 
   33300    1.3718573            0            0 
   33400    1.2707317            0            0 
   33500    1.2773773            0            0 
   33600    1.0913075            0            0 
   33700    1.0075884            0            0 
   33800   0.81892425            0            0 
   33900     0.855932            0            0 
   34000   0.64087771            0            0 
   34100   0.56786432            0            0 
   34200   0.67587413            0            0 
   34300   0.63487395            0            0 
   34400   0.88282127            0            0 
   34500   0.82384972            0            0 
   34600   0.72227895            0            0 
   34700   0.77306883            0            0 
   34800   0.92310348            0            0 
   34900    0.9584235            0            0 
   35000   0.86419704            0            0 
Loop time of 0.658255 on 16 procs for 5000 steps with 9 atoms

Performance: 6562801.771 tau/day, 7595.835 timesteps/s
419.1% CPU use with 1 MPI tasks x 16 OpenMP threads

MPI task timing breakdown:
Section |  min time  |  avg time  |  max time  |%varavg| %total
---------------------------------------------------------------
Pair    | 0.00048794 | 0.00048794 | 0.00048794 |   0.0 |  0.07
Bond    | 0.21792    | 0.21792    | 0.21792    |   0.0 | 33.11
Neigh   | 0.0013977  | 0.0013977  | 0.0013977  |   0.0 |  0.21
Comm    | 0.00094383 | 0.00094383 | 0.00094383 |   0.0 |  0.14
Output  | 0.013279   | 0.013279   | 0.013279   |   0.0 |  2.02
Modify  | 0.42188    | 0.42188    | 0.42188    |   0.0 | 64.09
Other   |            | 0.002346   |            |       |  0.36

Nlocal:        9.00000 ave           9 max           9 min
Histogram: 1 0 0 0 0 0 0 0 0 0
Nghost:        0.00000 ave           0 max           0 min
Histogram: 1 0 0 0 0 0 0 0 0 0
Neighs:        0.00000 ave           0 max           0 min
Histogram: 1 0 0 0 0 0 0 0 0 0

Total # of neighbors = 0
Ave neighs/atom = 0.0000000
Ave special neighs/atom = 0.0000000
Neighbor list builds = 50
Dangerous builds = 50

# delate all atoms in garbage
delete_atoms group garbage bond yes mol yes
WARNING: Ignoring 'compress yes' for molecular system (src/delete_atoms.cpp:125)
Deleted 0 atoms, new total = 9

# jump to loop lable until step > 0
next step
jump SELF loop
variable step loop ${duration}
variable step loop 50

variable newatoms equal ${bondcounter}/2
variable newatoms equal 0/2
if "${bondcounter} > 0" then    "fix depositatoms all deposit ${newatoms} 3 1 5748 region box near 2.0"
# fix ID group-ID deposit N type M seed keyword values
#fix depositatoms all deposit 1 3 1 5748 region box near 0.1

# assing all atoms that have a bond to the garbage group
group garbage dynamic all every 1 var hasbond
dynamic group garbage defined

# append new values on dump file
dump_modify 1 append yes

# perform n steps in loop
run 5000
Last active /omp style is bond_style harmonic/omp
WARNING: One or more dynamic groups may not be updated at correct point in timestep (src/fix_group.cpp:172)
Per MPI rank memory allocation (min/avg/max) = 28.33 | 28.33 | 28.33 Mbytes
Step Temp PotEng v_bondcounter 
   35000   0.86419704            0            0 
   35100   0.71343366            0            0 
   35200   0.88837605            0            0 
   35300   0.87984522            0            0 
   35400   0.91050407            0            0 
   35500    1.3336269            0            0 
   35600    1.1144157            0            0 
   35700    1.2175852            0            0 
   35800    1.4403926            0            0 
   35900    1.2000452            0            0 
   36000    1.2065655            0            0 
   36100    1.2853026            0            0 
   36200     1.181982            0            0 
   36300    0.9341482            0            0 
   36400   0.91958483            0            0 
   36500   0.97288592            0            0 
   36600   0.94758127            0            0 
   36700    1.0153903            0            0 
   36800    1.2878166            0            0 
   36900    1.3113357            0            0 
   37000    1.3351479            0            0 
   37100    1.1020318            0            0 
   37200   0.73469208            0            0 
   37300   0.57519586            0            0 
   37400   0.63765085            0            0 
   37500   0.81114127            0            0 
   37600   0.82963151            0            0 
   37700    1.0984752            0            0 
   37800    1.0123549            0            0 
   37900    1.1101402            0            0 
   38000   0.90827381            0            0 
   38100    1.1486639            0            0 
   38200   0.99536718            0            0 
   38300   0.76276083            0            0 
   38400   0.89391986            0            0 
   38500    1.2201772            0            0 
   38600    1.2772724            0            0 
   38700    1.1260609            0            0 
   38800    1.2306046            0            0 
   38900    1.4655582            0            0 
   39000     1.602762            0            0 
   39100    1.4559624            0            0 
   39200    1.1040265            0            0 
   39300    1.0205425            0            0 
   39400    1.1770764            0            0 
   39500    1.2134559            0            0 
   39600    1.2234485            0            0 
   39700   0.98751665            0            0 
   39800   0.88792178            0            0 
   39900   0.97780415            0            0 
   40000    1.1331788            0            0 
Loop time of 0.653036 on 16 procs for 5000 steps with 9 atoms

Performance: 6615260.306 tau/day, 7656.551 timesteps/s
423.1% CPU use with 1 MPI tasks x 16 OpenMP threads

MPI task timing breakdown:
Section |  min time  |  avg time  |  max time  |%varavg| %total
---------------------------------------------------------------
Pair    | 0.0004807  | 0.0004807  | 0.0004807  |   0.0 |  0.07
Bond    | 0.21604    | 0.21604    | 0.21604    |   0.0 | 33.08
Neigh   | 0.0014337  | 0.0014337  | 0.0014337  |   0.0 |  0.22
Comm    | 0.00094813 | 0.00094813 | 0.00094813 |   0.0 |  0.15
Output  | 0.013457   | 0.013457   | 0.013457   |   0.0 |  2.06
Modify  | 0.41833    | 0.41833    | 0.41833    |   0.0 | 64.06
Other   |            | 0.00235    |            |       |  0.36

Nlocal:        9.00000 ave           9 max           9 min
Histogram: 1 0 0 0 0 0 0 0 0 0
Nghost:        0.00000 ave           0 max           0 min
Histogram: 1 0 0 0 0 0 0 0 0 0
Neighs:        1.00000 ave           1 max           1 min
Histogram: 1 0 0 0 0 0 0 0 0 0

Total # of neighbors = 1
Ave neighs/atom = 0.11111111
Ave special neighs/atom = 0.0000000
Neighbor list builds = 50
Dangerous builds = 50

# delate all atoms in garbage
delete_atoms group garbage bond yes mol yes
WARNING: Ignoring 'compress yes' for molecular system (src/delete_atoms.cpp:125)
Deleted 0 atoms, new total = 9

# jump to loop lable until step > 0
next step
jump SELF loop
variable step loop ${duration}
variable step loop 50

variable newatoms equal ${bondcounter}/2
variable newatoms equal 0/2
if "${bondcounter} > 0" then    "fix depositatoms all deposit ${newatoms} 3 1 5748 region box near 2.0"
# fix ID group-ID deposit N type M seed keyword values
#fix depositatoms all deposit 1 3 1 5748 region box near 0.1

# assing all atoms that have a bond to the garbage group
group garbage dynamic all every 1 var hasbond
dynamic group garbage defined

# append new values on dump file
dump_modify 1 append yes

# perform n steps in loop
run 5000
Last active /omp style is bond_style harmonic/omp
WARNING: One or more dynamic groups may not be updated at correct point in timestep (src/fix_group.cpp:172)
Per MPI rank memory allocation (min/avg/max) = 28.33 | 28.33 | 28.33 Mbytes
Step Temp PotEng v_bondcounter 
   40000    1.1331788            0            0 
   40100    1.3191319            0            0 
   40200    1.5955383            0            0 
   40300    1.5332032            0            0 
   40400    1.6346898            0            0 
   40500     1.755688            0            0 
   40600    1.9249001            0            0 
   40700     1.932243            0            0 
   40800    1.4682943            0            0 
   40900    1.4419936            0            0 
   41000    1.1090367            0            0 
   41100   0.80160242            0            0 
   41200   0.71485002            0            0 
   41300   0.99516693            0            0 
   41400   0.87488742            0            0 
   41500    1.0302228            0            0 
   41600    1.1278433            0            0 
   41700    1.0424979            0            0 
   41800    1.0890283            0            0 
   41900    1.1290691            0            0 
   42000    1.2193838            0            0 
   42100    1.3965397            0            0 
   42200    1.8747899            0            0 
   42300    1.4168628            0            0 
   42400    1.4669409            0            0 
   42500    1.4770505            0            0 
   42600    1.4721363            0            0 
   42700   0.84531462            0            0 
   42800   0.98809893            0            0 
   42900    1.1880884            0            0 
   43000    0.7827142            0            0 
   43100   0.80376905            0            0 
   43200    1.1211796            0            0 
   43300    1.4030912            0            0 
   43400    1.5388571            0            0 
   43500    1.7421362            0            0 
   43600    1.9476604            0            0 
   43700    2.1470468            0            0 
   43800    1.7939417            0            0 
   43900    1.6767808            0            0 
   44000    1.5900593            0            0 
   44100    1.5243339            0            0 
   44200    1.4705408            0            0 
   44300    1.1698242            0            0 
   44400    1.1403163            0            0 
   44500    1.1229929            0            0 
   44600    1.3232091            0            0 
   44700    1.5303841            0            0 
   44800     1.650457            0            0 
   44900    1.5604711            0            0 
   45000    1.5227352            0            0 
Loop time of 0.657582 on 16 procs for 5000 steps with 9 atoms

Performance: 6569525.706 tau/day, 7603.618 timesteps/s
428.1% CPU use with 1 MPI tasks x 16 OpenMP threads

MPI task timing breakdown:
Section |  min time  |  avg time  |  max time  |%varavg| %total
---------------------------------------------------------------
Pair    | 0.00048939 | 0.00048939 | 0.00048939 |   0.0 |  0.07
Bond    | 0.22063    | 0.22063    | 0.22063    |   0.0 | 33.55
Neigh   | 0.0014783  | 0.0014783  | 0.0014783  |   0.0 |  0.22
Comm    | 0.00095267 | 0.00095267 | 0.00095267 |   0.0 |  0.14
Output  | 0.013537   | 0.013537   | 0.013537   |   0.0 |  2.06
Modify  | 0.41807    | 0.41807    | 0.41807    |   0.0 | 63.58
Other   |            | 0.002419   |            |       |  0.37

Nlocal:        9.00000 ave           9 max           9 min
Histogram: 1 0 0 0 0 0 0 0 0 0
Nghost:        0.00000 ave           0 max           0 min
Histogram: 1 0 0 0 0 0 0 0 0 0
Neighs:        0.00000 ave           0 max           0 min
Histogram: 1 0 0 0 0 0 0 0 0 0

Total # of neighbors = 0
Ave neighs/atom = 0.0000000
Ave special neighs/atom = 0.0000000
Neighbor list builds = 50
Dangerous builds = 50

# delate all atoms in garbage
delete_atoms group garbage bond yes mol yes
WARNING: Ignoring 'compress yes' for molecular system (src/delete_atoms.cpp:125)
Deleted 0 atoms, new total = 9

# jump to loop lable until step > 0
next step
jump SELF loop
variable step loop ${duration}
variable step loop 50

variable newatoms equal ${bondcounter}/2
variable newatoms equal 0/2
if "${bondcounter} > 0" then    "fix depositatoms all deposit ${newatoms} 3 1 5748 region box near 2.0"
# fix ID group-ID deposit N type M seed keyword values
#fix depositatoms all deposit 1 3 1 5748 region box near 0.1

# assing all atoms that have a bond to the garbage group
group garbage dynamic all every 1 var hasbond
dynamic group garbage defined

# append new values on dump file
dump_modify 1 append yes

# perform n steps in loop
run 5000
Last active /omp style is bond_style harmonic/omp
WARNING: One or more dynamic groups may not be updated at correct point in timestep (src/fix_group.cpp:172)
Per MPI rank memory allocation (min/avg/max) = 28.33 | 28.33 | 28.33 Mbytes
Step Temp PotEng v_bondcounter 
   45000    1.5227352            0            0 
   45100     1.419216            0            0 
   45200     1.444133            0            0 
   45300    1.7043173            0            0 
   45400     1.803368            0            0 
   45500    1.7930622            0            0 
   45600    1.8081563            0            0 
   45700    1.9889248            0            0 
   45800    1.4278403            0            0 
   45900    1.6018667            0            0 
   46000    1.4648458            0            0 
   46100    1.3212333            0            0 
   46200    1.2582339            0            0 
   46300   0.89909359            0            0 
   46400   0.81354634            0            0 
   46500   0.87122791            0            0 
   46600   0.83510043            0            0 
   46700   0.97462411            0            0 
   46800    1.1799689            0            0 
   46900   0.98866603            0            0 
   47000    1.1324909            0            0 
   47100   0.86898637            0            0 
   47200    1.0404493            0            0 
   47300   0.98626937            0            0 
   47400   0.92686295            0            0 
   47500   0.86369641            0            0 
   47600    1.0655478            0            0 
   47700    1.2107615            0            0 
   47800     1.007269            0            0 
   47900    1.1874351            0            0 
   48000   0.97892603            0            0 
   48100    1.1425478            0            0 
   48200    1.2529636            0            0 
   48300    1.0952474            0            0 
   48400    1.1855105            0            0 
   48500    1.1968596            0            0 
   48600    1.1184907            0            0 
   48700    1.2206194            0            0 
   48800    1.2884816            0            0 
   48900    1.2744725            0            0 
   49000    1.1209706            0            0 
   49100    1.3394724            0            0 
   49200     1.233003            0            0 
   49300    1.1300028            0            0 
   49400    1.1072777            0            0 
   49500    1.6652319            0            0 
   49600    1.7100324            0            0 
   49700     1.568418            0            0 
   49800     1.842151            0            0 
   49900    1.9185764            0            0 
   50000    1.5998017            0            0 
Loop time of 0.657525 on 16 procs for 5000 steps with 9 atoms

Performance: 6570091.812 tau/day, 7604.273 timesteps/s
424.0% CPU use with 1 MPI tasks x 16 OpenMP threads

MPI task timing breakdown:
Section |  min time  |  avg time  |  max time  |%varavg| %total
---------------------------------------------------------------
Pair    | 0.00047592 | 0.00047592 | 0.00047592 |   0.0 |  0.07
Bond    | 0.21708    | 0.21708    | 0.21708    |   0.0 | 33.01
Neigh   | 0.0014635  | 0.0014635  | 0.0014635  |   0.0 |  0.22
Comm    | 0.00094174 | 0.00094174 | 0.00094174 |   0.0 |  0.14
Output  | 0.0135     | 0.0135     | 0.0135     |   0.0 |  2.05
Modify  | 0.4215     | 0.4215     | 0.4215     |   0.0 | 64.10
Other   |            | 0.002562   |            |       |  0.39

Nlocal:        9.00000 ave           9 max           9 min
Histogram: 1 0 0 0 0 0 0 0 0 0
Nghost:        0.00000 ave           0 max           0 min
Histogram: 1 0 0 0 0 0 0 0 0 0
Neighs:        0.00000 ave           0 max           0 min
Histogram: 1 0 0 0 0 0 0 0 0 0

Total # of neighbors = 0
Ave neighs/atom = 0.0000000
Ave special neighs/atom = 0.0000000
Neighbor list builds = 50
Dangerous builds = 50

# delate all atoms in garbage
delete_atoms group garbage bond yes mol yes
WARNING: Ignoring 'compress yes' for molecular system (src/delete_atoms.cpp:125)
Deleted 0 atoms, new total = 9

# jump to loop lable until step > 0
next step
jump SELF loop
variable step loop ${duration}
variable step loop 50

variable newatoms equal ${bondcounter}/2
variable newatoms equal 0/2
if "${bondcounter} > 0" then    "fix depositatoms all deposit ${newatoms} 3 1 5748 region box near 2.0"
# fix ID group-ID deposit N type M seed keyword values
#fix depositatoms all deposit 1 3 1 5748 region box near 0.1

# assing all atoms that have a bond to the garbage group
group garbage dynamic all every 1 var hasbond
dynamic group garbage defined

# append new values on dump file
dump_modify 1 append yes

# perform n steps in loop
run 5000
Last active /omp style is bond_style harmonic/omp
WARNING: One or more dynamic groups may not be updated at correct point in timestep (src/fix_group.cpp:172)
Per MPI rank memory allocation (min/avg/max) = 28.33 | 28.33 | 28.33 Mbytes
Step Temp PotEng v_bondcounter 
   50000    1.5998017            0            0 
   50100    1.5419507            0            0 
   50200    1.4054484            0            0 
   50300    1.0106114            0            0 
   50400   0.99346124            0            0 
   50500    1.1627806            0            0 
   50600   0.84278448            0            0 
   50700   0.79264484            0            0 
   50800   0.77834266            0            0 
   50900   0.74758436            0            0 
   51000   0.87690019            0            0 
   51100   0.69665717            0            0 
   51200   0.63690607            0            0 
   51300   0.66650267            0            0 
   51400   0.86877171            0            0 
   51500   0.89253004            0            0 
   51600    1.3734147            0            0 
   51700    1.5684321            0            0 
   51800    1.6080163            0            0 
   51900    1.4043297            0            0 
   52000    1.3739582            0            0 
   52100    1.3802768            0            0 
   52200    1.2982201            0            0 
   52300    1.1387843            0            0 
   52400   0.91046859            0            0 
   52500    1.0995101            0            0 
   52600    1.7132154            0            0 
   52700    1.9305723            0            0 
   52800    1.8046768            0            0 
   52900     1.645006            0            0 
   53000    1.5131975            0            0 
   53100    1.1805312            0            0 
   53200    1.2883786            0            0 
   53300    1.0853435            0            0 
   53400    0.9446083            0            0 
   53500    1.2197566            0            0 
   53600    1.0600848            0            0 
   53700    1.1036625            0            0 
   53800    1.3370421            0            0 
   53900    1.0748154            0            0 
   54000    1.3277254            0            0 
   54100    1.3997734            0            0 
   54200    1.2649932            0            0 
   54300    1.1530034            0            0 
   54400    1.1467146            0            0 
   54500     1.087253            0            0 
   54600    1.2124686            0            0 
   54700     1.191679            0            0 
   54800    1.1297548            0            0 
   54900    1.1792672            0            0 
   55000    1.2707687            0            0 
Loop time of 0.667966 on 16 procs for 5000 steps with 9 atoms

Performance: 6467399.772 tau/day, 7485.416 timesteps/s
420.1% CPU use with 1 MPI tasks x 16 OpenMP threads

MPI task timing breakdown:
Section |  min time  |  avg time  |  max time  |%varavg| %total
---------------------------------------------------------------
Pair    | 0.00048782 | 0.00048782 | 0.00048782 |   0.0 |  0.07
Bond    | 0.22076    | 0.22076    | 0.22076    |   0.0 | 33.05
Neigh   | 0.0014463  | 0.0014463  | 0.0014463  |   0.0 |  0.22
Comm    | 0.00094912 | 0.00094912 | 0.00094912 |   0.0 |  0.14
Output  | 0.019009   | 0.019009   | 0.019009   |   0.0 |  2.85
Modify  | 0.42301    | 0.42301    | 0.42301    |   0.0 | 63.33
Other   |            | 0.002297   |            |       |  0.34

Nlocal:        9.00000 ave           9 max           9 min
Histogram: 1 0 0 0 0 0 0 0 0 0
Nghost:        0.00000 ave           0 max           0 min
Histogram: 1 0 0 0 0 0 0 0 0 0
Neighs:        1.00000 ave           1 max           1 min
Histogram: 1 0 0 0 0 0 0 0 0 0

Total # of neighbors = 1
Ave neighs/atom = 0.11111111
Ave special neighs/atom = 0.0000000
Neighbor list builds = 50
Dangerous builds = 50

# delate all atoms in garbage
delete_atoms group garbage bond yes mol yes
WARNING: Ignoring 'compress yes' for molecular system (src/delete_atoms.cpp:125)
Deleted 0 atoms, new total = 9

# jump to loop lable until step > 0
next step
jump SELF loop
variable step loop ${duration}
variable step loop 50

variable newatoms equal ${bondcounter}/2
variable newatoms equal 0/2
if "${bondcounter} > 0" then    "fix depositatoms all deposit ${newatoms} 3 1 5748 region box near 2.0"
# fix ID group-ID deposit N type M seed keyword values
#fix depositatoms all deposit 1 3 1 5748 region box near 0.1

# assing all atoms that have a bond to the garbage group
group garbage dynamic all every 1 var hasbond
dynamic group garbage defined

# append new values on dump file
dump_modify 1 append yes

# perform n steps in loop
run 5000
Last active /omp style is bond_style harmonic/omp
WARNING: One or more dynamic groups may not be updated at correct point in timestep (src/fix_group.cpp:172)
Per MPI rank memory allocation (min/avg/max) = 28.33 | 28.33 | 28.33 Mbytes
Step Temp PotEng v_bondcounter 
   55000    1.2707687            0            0 
   55100    1.1800042            0            0 
   55200   0.77406731            0            0 
   55300   0.85399341            0            0 
   55400    1.0731218            0            0 
   55500    1.1741906            0            0 
   55600   0.71539982            0            0 
   55700   0.95862567            0            0 
   55800    1.0496651            0            0 
   55900   0.69190993            0            0 
   56000   0.65035163            0            0 
   56100    0.4785007            0            0 
   56200   0.73417383            0            0 
   56300   0.75893514            0            0 
   56400    1.0028519            0            0 
   56500    1.1938348            0            0 
   56600    1.0286079            0            0 
   56700    1.0057052            0            0 
   56800    1.1872747            0            0 
   56900     1.265205            0            0 
   57000    1.3245516            0            0 
   57100    1.5713759            0            0 
   57200    1.4398397            0            0 
   57300    1.4341637            0            0 
   57400    1.4620923            0            0 
   57500    1.4243144            0            0 
   57600    1.2962935            0            0 
   57700    1.1556123            0            0 
   57800   0.94445719            0            0 
   57900   0.80426757            0            0 
   58000   0.84252451            0            0 
   58100   0.86383163            0            0 
   58200   0.92505918            0            0 
   58300   0.99292982            0            0 
   58400    1.1243115            0            0 
   58500    1.2223604            0            0 
   58600    1.2426244            0            0 
   58700     1.185127            0            0 
   58800    1.0195929            0            0 
   58900   0.98521277            0            0 
   59000   0.76975621            0            0 
   59100   0.82429456            0            0 
   59200   0.90914586            0            0 
   59300    1.1436611            0            0 
   59400   0.94003083            0            0 
   59500   0.72412183            0            0 
   59600   0.88821058            0            0 
   59700    1.1643894            0            0 
   59800    1.3182486            0            0 
   59900    1.5456341            0            0 
   60000    1.6720047            0            0 
Loop time of 0.656426 on 16 procs for 5000 steps with 9 atoms

Performance: 6581089.961 tau/day, 7617.002 timesteps/s
435.5% CPU use with 1 MPI tasks x 16 OpenMP threads

MPI task timing breakdown:
Section |  min time  |  avg time  |  max time  |%varavg| %total
---------------------------------------------------------------
Pair    | 0.00050496 | 0.00050496 | 0.00050496 |   0.0 |  0.08
Bond    | 0.21777    | 0.21777    | 0.21777    |   0.0 | 33.17
Neigh   | 0.0015808  | 0.0015808  | 0.0015808  |   0.0 |  0.24
Comm    | 0.0009744  | 0.0009744  | 0.0009744  |   0.0 |  0.15
Output  | 0.013681   | 0.013681   | 0.013681   |   0.0 |  2.08
Modify  | 0.41943    | 0.41943    | 0.41943    |   0.0 | 63.90
Other   |            | 0.002489   |            |       |  0.38

Nlocal:        9.00000 ave           9 max           9 min
Histogram: 1 0 0 0 0 0 0 0 0 0
Nghost:        0.00000 ave           0 max           0 min
Histogram: 1 0 0 0 0 0 0 0 0 0
Neighs:        0.00000 ave           0 max           0 min
Histogram: 1 0 0 0 0 0 0 0 0 0

Total # of neighbors = 0
Ave neighs/atom = 0.0000000
Ave special neighs/atom = 0.0000000
Neighbor list builds = 50
Dangerous builds = 50

# delate all atoms in garbage
delete_atoms group garbage bond yes mol yes
WARNING: Ignoring 'compress yes' for molecular system (src/delete_atoms.cpp:125)
Deleted 0 atoms, new total = 9

# jump to loop lable until step > 0
next step
jump SELF loop
variable step loop ${duration}
variable step loop 50

variable newatoms equal ${bondcounter}/2
variable newatoms equal 0/2
if "${bondcounter} > 0" then    "fix depositatoms all deposit ${newatoms} 3 1 5748 region box near 2.0"
# fix ID group-ID deposit N type M seed keyword values
#fix depositatoms all deposit 1 3 1 5748 region box near 0.1

# assing all atoms that have a bond to the garbage group
group garbage dynamic all every 1 var hasbond
dynamic group garbage defined

# append new values on dump file
dump_modify 1 append yes

# perform n steps in loop
run 5000
Last active /omp style is bond_style harmonic/omp
WARNING: One or more dynamic groups may not be updated at correct point in timestep (src/fix_group.cpp:172)
Per MPI rank memory allocation (min/avg/max) = 28.33 | 28.33 | 28.33 Mbytes
Step Temp PotEng v_bondcounter 
   60000    1.6720047            0            0 
   60100    1.8719304            0            0 
   60200    2.4161178            0            0 
   60300    2.3573077            0            0 
   60400    2.0338156            0            0 
   60500    1.5108807            0            0 
   60600      1.56741            0            0 
   60700    1.4194861            0            0 
   60800    1.1695335            0            0 
   60900    1.4517561            0            0 
   61000    1.8910527            0            0 
   61100    2.1112599            0            0 
   61200    1.6022987            0            0 
   61300    1.5646225            0            0 
   61400    1.4592753            0            0 
   61500    1.3752743            0            0 
   61600   0.93013468            0            0 
   61700    1.0362417            0            0 
   61800   0.84729575            0            0 
   61900   0.62169401            0            0 
   62000   0.67444234            0            0 
   62100   0.54544982            0            0 
   62200   0.60047087            0            0 
   62300   0.75887151            0            0 
   62400   0.92089402            0            0 
   62500    1.0142537            0            0 
   62600    1.3211499            0            0 
   62700    1.8295471            0            0 
   62800    1.8318777            0            0 
   62900    1.8979406            0            0 
   63000    1.4243232            0            0 
   63100    1.2218247            0            0 
   63200    1.2913077            0            0 
   63300    1.2700173            0            0 
   63400    1.3379705            0            0 
   63500    1.0385263            0            0 
   63600   0.99895217            0            0 
   63700   0.98794196            0            0 
   63800    1.0510788            0            0 
   63900    1.1879051            0            0 
   64000    1.2311351            0            0 
   64100    1.4827924            0            0 
   64200    1.3777923            0            0 
   64300    1.1808466            0            0 
   64400    1.3876563            0            0 
   64500    1.6005593            0            0 
   64600    1.7500733            0            0 
   64700    1.4498829            0            0 
   64800    1.5745469            0            0 
   64900    1.5037792            0            0 
   65000    1.3080933            0            0 
Loop time of 0.6579 on 16 procs for 5000 steps with 9 atoms

Performance: 6566344.455 tau/day, 7599.936 timesteps/s
429.7% CPU use with 1 MPI tasks x 16 OpenMP threads

MPI task timing breakdown:
Section |  min time  |  avg time  |  max time  |%varavg| %total
---------------------------------------------------------------
Pair    | 0.00047681 | 0.00047681 | 0.00047681 |   0.0 |  0.07
Bond    | 0.21719    | 0.21719    | 0.21719    |   0.0 | 33.01
Neigh   | 0.0014107  | 0.0014107  | 0.0014107  |   0.0 |  0.21
Comm    | 0.00095202 | 0.00095202 | 0.00095202 |   0.0 |  0.14
Output  | 0.013691   | 0.013691   | 0.013691   |   0.0 |  2.08
Modify  | 0.42186    | 0.42186    | 0.42186    |   0.0 | 64.12
Other   |            | 0.002321   |            |       |  0.35

Nlocal:        9.00000 ave           9 max           9 min
Histogram: 1 0 0 0 0 0 0 0 0 0
Nghost:        0.00000 ave           0 max           0 min
Histogram: 1 0 0 0 0 0 0 0 0 0
Neighs:        1.00000 ave           1 max           1 min
Histogram: 1 0 0 0 0 0 0 0 0 0

Total # of neighbors = 1
Ave neighs/atom = 0.11111111
Ave special neighs/atom = 0.0000000
Neighbor list builds = 50
Dangerous builds = 50

# delate all atoms in garbage
delete_atoms group garbage bond yes mol yes
WARNING: Ignoring 'compress yes' for molecular system (src/delete_atoms.cpp:125)
Deleted 0 atoms, new total = 9

# jump to loop lable until step > 0
next step
jump SELF loop
variable step loop ${duration}
variable step loop 50

variable newatoms equal ${bondcounter}/2
variable newatoms equal 0/2
if "${bondcounter} > 0" then    "fix depositatoms all deposit ${newatoms} 3 1 5748 region box near 2.0"
# fix ID group-ID deposit N type M seed keyword values
#fix depositatoms all deposit 1 3 1 5748 region box near 0.1

# assing all atoms that have a bond to the garbage group
group garbage dynamic all every 1 var hasbond
dynamic group garbage defined

# append new values on dump file
dump_modify 1 append yes

# perform n steps in loop
run 5000
Last active /omp style is bond_style harmonic/omp
WARNING: One or more dynamic groups may not be updated at correct point in timestep (src/fix_group.cpp:172)
Per MPI rank memory allocation (min/avg/max) = 28.33 | 28.33 | 28.33 Mbytes
Step Temp PotEng v_bondcounter 
   65000    1.3080933            0            0 
   65100    1.3342189            0            0 
   65200    1.5062245            0            0 
   65300    1.5305343            0            0 
   65400    1.2939513            0            0 
   65500    1.0449968            0            0 
   65600    1.3576671            0            0 
   65700    1.4081135            0            0 
   65800    1.3816854            0            0 
   65900     1.236166            0            0 
   66000    1.5635488            0            0 
   66100    1.5726444            0            0 
   66200    1.1015964            0            0 
   66300    1.1715592            0            0 
   66400    1.2858714            0            0 
   66500    1.3258249            0            0 
   66600    1.1337673            0            0 
   66700   0.96496048            0            0 
   66800    1.2239709            0            0 
   66900    1.1850511            0            0 
   67000   0.96171632            0            0 
   67100    1.1133022            0            0 
   67200     1.323024            0            0 
   67300    1.4852132            0            0 
   67400    1.2901677            0            0 
   67500     1.259201            0            0 
   67600    1.3926295            0            0 
   67700    1.3553814            0            0 
   67800   0.87967719            0            0 
   67900   0.77340836            0            0 
   68000   0.87178178            0            0 
   68100    1.0777467            0            0 
   68200   0.98212801            0            0 
   68300    0.7895754            0            0 
   68400   0.84591076            0            0 
   68500   0.97202625            0            0 
   68600   0.88549044            0            0 
   68700   0.98894727            0            0 
   68800   0.87554624            0            0 
   68900   0.68631621            0            0 
   69000   0.77869442            0            0 
   69100   0.78949085            0            0 
   69200   0.86510236            0            0 
   69300   0.51430502            0            0 
   69400   0.52317846            0            0 
   69500   0.61375531            0            0 
   69600   0.77175119            0            0 
   69700   0.94918767            0            0 
   69800   0.89257953            0            0 
   69900    1.1211512            0            0 
   70000    1.2281573            0            0 
Loop time of 0.657128 on 16 procs for 5000 steps with 9 atoms

Performance: 6574064.276 tau/day, 7608.871 timesteps/s
411.3% CPU use with 1 MPI tasks x 16 OpenMP threads

MPI task timing breakdown:
Section |  min time  |  avg time  |  max time  |%varavg| %total
---------------------------------------------------------------
Pair    | 0.00048409 | 0.00048409 | 0.00048409 |   0.0 |  0.07
Bond    | 0.22116    | 0.22116    | 0.22116    |   0.0 | 33.66
Neigh   | 0.0020453  | 0.0020453  | 0.0020453  |   0.0 |  0.31
Comm    | 0.00094614 | 0.00094614 | 0.00094614 |   0.0 |  0.14
Output  | 0.013642   | 0.013642   | 0.013642   |   0.0 |  2.08
Modify  | 0.41612    | 0.41612    | 0.41612    |   0.0 | 63.32
Other   |            | 0.002732   |            |       |  0.42

Nlocal:        9.00000 ave           9 max           9 min
Histogram: 1 0 0 0 0 0 0 0 0 0
Nghost:        0.00000 ave           0 max           0 min
Histogram: 1 0 0 0 0 0 0 0 0 0
Neighs:        1.00000 ave           1 max           1 min
Histogram: 1 0 0 0 0 0 0 0 0 0

Total # of neighbors = 1
Ave neighs/atom = 0.11111111
Ave special neighs/atom = 0.0000000
Neighbor list builds = 50
Dangerous builds = 50

# delate all atoms in garbage
delete_atoms group garbage bond yes mol yes
WARNING: Ignoring 'compress yes' for molecular system (src/delete_atoms.cpp:125)
Deleted 0 atoms, new total = 9

# jump to loop lable until step > 0
next step
jump SELF loop
variable step loop ${duration}
variable step loop 50

variable newatoms equal ${bondcounter}/2
variable newatoms equal 0/2
if "${bondcounter} > 0" then    "fix depositatoms all deposit ${newatoms} 3 1 5748 region box near 2.0"
# fix ID group-ID deposit N type M seed keyword values
#fix depositatoms all deposit 1 3 1 5748 region box near 0.1

# assing all atoms that have a bond to the garbage group
group garbage dynamic all every 1 var hasbond
dynamic group garbage defined

# append new values on dump file
dump_modify 1 append yes

# perform n steps in loop
run 5000
Last active /omp style is bond_style harmonic/omp
WARNING: One or more dynamic groups may not be updated at correct point in timestep (src/fix_group.cpp:172)
Per MPI rank memory allocation (min/avg/max) = 28.33 | 28.33 | 28.33 Mbytes
Step Temp PotEng v_bondcounter 
   70000    1.2281573            0            0 
   70100    1.2616539            0            0 
   70200    1.4180683            0            0 
   70300    1.4076925            0            0 
   70400    1.2334773            0            0 
   70500    1.4061625            0            0 
   70600    1.3518896            0            0 
   70700   0.94740212            0            0 
   70800   0.82394018            0            0 
   70900   0.80711442            0            0 
   71000    1.0028982            0            0 
   71100    1.1073848            0            0 
   71200    1.1785347            0            0 
   71300    1.0718678            0            0 
   71400   0.80729865            0            0 
   71500   0.73646983            0            0 
   71600   0.81116504            0            0 
   71700    1.2150021            0            0 
   71800    1.1332592            0            0 
   71900    1.2853458            0            0 
   72000    1.5672713            0            0 
   72100    1.3305472            0            0 
   72200    1.4618212            0            0 
   72300    1.3300256            0            0 
   72400     1.212809            0            0 
   72500    1.3016092            0            0 
   72600    1.5045539            0            0 
   72700     1.210507            0            0 
   72800    1.0635188            0            0 
   72900    1.2578869            0            0 
   73000    1.2258698            0            0 
   73100   0.93124175            0            0 
   73200    1.1256025            0            0 
   73300    1.5865779            0            0 
   73400     1.737567            0            0 
   73500    1.9613599            0            0 
   73600    1.6674215            0            0 
   73700    1.7798615            0            0 
   73800    1.9125457            0            0 
   73900    1.6890156            0            0 
   74000      1.56941            0            0 
   74100     1.874794            0            0 
   74200    2.0007812            0            0 
   74300    2.0411251            0            0 
   74400    1.6754313            0            0 
   74500    1.9403169            0            0 
   74600    1.9739475            0            0 
   74700    1.8430991            0            0 
   74800    1.2389145            0            0 
   74900    1.2485772            0            0 
   75000    1.0550406            0            0 
Loop time of 0.653284 on 16 procs for 5000 steps with 9 atoms

Performance: 6612745.392 tau/day, 7653.640 timesteps/s
433.8% CPU use with 1 MPI tasks x 16 OpenMP threads

MPI task timing breakdown:
Section |  min time  |  avg time  |  max time  |%varavg| %total
---------------------------------------------------------------
Pair    | 0.00047086 | 0.00047086 | 0.00047086 |   0.0 |  0.07
Bond    | 0.21535    | 0.21535    | 0.21535    |   0.0 | 32.96
Neigh   | 0.0014058  | 0.0014058  | 0.0014058  |   0.0 |  0.22
Comm    | 0.00093764 | 0.00093764 | 0.00093764 |   0.0 |  0.14
Output  | 0.013511   | 0.013511   | 0.013511   |   0.0 |  2.07
Modify  | 0.4193     | 0.4193     | 0.4193     |   0.0 | 64.18
Other   |            | 0.002312   |            |       |  0.35

Nlocal:        9.00000 ave           9 max           9 min
Histogram: 1 0 0 0 0 0 0 0 0 0
Nghost:        0.00000 ave           0 max           0 min
Histogram: 1 0 0 0 0 0 0 0 0 0
Neighs:        0.00000 ave           0 max           0 min
Histogram: 1 0 0 0 0 0 0 0 0 0

Total # of neighbors = 0
Ave neighs/atom = 0.0000000
Ave special neighs/atom = 0.0000000
Neighbor list builds = 50
Dangerous builds = 50

# delate all atoms in garbage
delete_atoms group garbage bond yes mol yes
WARNING: Ignoring 'compress yes' for molecular system (src/delete_atoms.cpp:125)
Deleted 0 atoms, new total = 9

# jump to loop lable until step > 0
next step
jump SELF loop
variable step loop ${duration}
variable step loop 50

variable newatoms equal ${bondcounter}/2
variable newatoms equal 0/2
if "${bondcounter} > 0" then    "fix depositatoms all deposit ${newatoms} 3 1 5748 region box near 2.0"
# fix ID group-ID deposit N type M seed keyword values
#fix depositatoms all deposit 1 3 1 5748 region box near 0.1

# assing all atoms that have a bond to the garbage group
group garbage dynamic all every 1 var hasbond
dynamic group garbage defined

# append new values on dump file
dump_modify 1 append yes

# perform n steps in loop
run 5000
Last active /omp style is bond_style harmonic/omp
WARNING: One or more dynamic groups may not be updated at correct point in timestep (src/fix_group.cpp:172)
Per MPI rank memory allocation (min/avg/max) = 28.33 | 28.33 | 28.33 Mbytes
Step Temp PotEng v_bondcounter 
   75000    1.0550406            0            0 
   75100   0.89651813            0            0 
   75200   0.60963866            0            0 
   75300   0.72138662            0            0 
   75400   0.77216232            0            0 
   75500    0.8962979            0            0 
   75600    1.0622456            0            0 
   75700    1.0511044            0            0 
   75800    1.0454689            0            0 
   75900   0.74828345            0            0 
   76000    0.7672975            0            0 
   76100   0.90169491            0            0 
   76200   0.85514287            0            0 
   76300    1.0275216            0            0 
   76400    1.1837527            0            0 
   76500    1.1855078            0            0 
   76600     1.350457            0            0 
   76700    1.2134065            0            0 
   76800   0.94338986            0            0 
   76900   0.66503386            0            0 
   77000   0.65077361            0            0 
   77100   0.58318894            0            0 
   77200   0.49594659            0            0 
   77300   0.72515558            0            0 
   77400   0.92458075            0            0 
   77500    1.0106791            0            0 
   77600    1.1136734            0            0 
   77700     1.075583            0            0 
   77800    1.3230693            0            0 
   77900    1.1019903            0            0 
   78000    1.0043163            0            0 
   78100    1.0073122            0            0 
   78200    1.0997197            0            0 
   78300    1.1483785            0            0 
   78400    1.0789667            0            0 
   78500    1.2375477            0            0 
   78600    1.1783635            0            0 
   78700   0.98215446            0            0 
   78800   0.75183813            0            0 
   78900   0.73411715            0            0 
   79000   0.56757967            0            0 
   79100   0.62855015            0            0 
[...]
Modify  | 0.42298    | 0.42298    | 0.42298    |   0.0 | 63.97
Other   |            | 0.002649   |            |       |  0.40

Nlocal:        7.00000 ave           7 max           7 min
Histogram: 1 0 0 0 0 0 0 0 0 0
Nghost:        0.00000 ave           0 max           0 min
Histogram: 1 0 0 0 0 0 0 0 0 0
Neighs:        0.00000 ave           0 max           0 min
Histogram: 1 0 0 0 0 0 0 0 0 0

Total # of neighbors = 0
Ave neighs/atom = 0.0000000
Ave special neighs/atom = 0.0000000
Neighbor list builds = 50
Dangerous builds = 50

# delate all atoms in garbage
delete_atoms group garbage bond yes mol yes
WARNING: Ignoring 'compress yes' for molecular system (src/delete_atoms.cpp:125)
Deleted 0 atoms, new total = 7

# jump to loop lable until step > 0
next step
jump SELF loop
variable step loop ${duration}
variable step loop 50

variable newatoms equal ${bondcounter}/2
variable newatoms equal 0/2
if "${bondcounter} > 0" then    "fix depositatoms all deposit ${newatoms} 3 1 5748 region box near 2.0"
# fix ID group-ID deposit N type M seed keyword values
#fix depositatoms all deposit 1 3 1 5748 region box near 0.1

# assing all atoms that have a bond to the garbage group
group garbage dynamic all every 1 var hasbond
dynamic group garbage defined

# append new values on dump file
dump_modify 1 append yes

# perform n steps in loop
run 5000
Last active /omp style is bond_style harmonic/omp
WARNING: One or more dynamic groups may not be updated at correct point in timestep (src/fix_group.cpp:172)
Per MPI rank memory allocation (min/avg/max) = 28.33 | 28.33 | 28.33 Mbytes
Step Temp PotEng v_bondcounter 
  230000    1.0240266            0            0 
  230100   0.90558282            0            0 
  230200    1.1102807            0            0 
  230300   0.96358305            0            0 
  230400   0.92987356            0            0 
  230500     1.032153            0            0 
  230600     0.825495            0            0 
  230700   0.88918162            0            0 
  230800   0.75523077            0            0 
  230900   0.58811536            0            0 
  231000   0.39842271            0            0 
  231100   0.47710065            0            0 
  231200   0.59669506            0            0 
  231300   0.77016764            0            0 
  231400    1.2808342            0            0 
  231500    1.3301291            0            0 
  231600    1.5073679            0            0 
  231700    2.1311788            0            0 
  231800    1.9852903            0            0 
  231900    1.3518051            0            0 
  232000    1.5952296            0            0 
  232100    1.4401872            0            0 
  232200    1.4339993            0            0 
  232300    1.0559878            0            0 
  232400   0.98159835            0            0 
  232500   0.79729673            0            0 
  232600   0.81447476            0            0 
  232700   0.49506057            0            0 
  232800   0.64339088            0            0 
  232900   0.83857186            0            0 
  233000   0.79475877            0            0 
  233100   0.96601359            0            0 
  233200    1.2235639            0            0 
  233300   0.98809257            0            0 
  233400   0.96860778            0            0 
  233500    1.0703968            0            0 
  233600   0.79342917            0            0 
  233700    1.0719259            0            0 
  233800    1.2400186            0            0 
  233900    1.2139686            0            0 
  234000   0.93373895            0            0 
  234100    1.0509222            0            0 
  234200    1.2076759            0            0 
  234300    1.6553791            0            0 
  234400    1.3138635            0            0 
  234500    1.2158251            0            0 
  234600    1.0908743            0            0 
  234700   0.86302017            0            0 
  234800   0.67203769            0            0 
  234900   0.63156828            0            0 
  235000   0.77588237            0            0 
Loop time of 0.658398 on 16 procs for 5000 steps with 7 atoms

Performance: 6561376.700 tau/day, 7594.186 timesteps/s
419.0% CPU use with 1 MPI tasks x 16 OpenMP threads

MPI task timing breakdown:
Section |  min time  |  avg time  |  max time  |%varavg| %total
---------------------------------------------------------------
Pair    | 0.00048542 | 0.00048542 | 0.00048542 |   0.0 |  0.07
Bond    | 0.21868    | 0.21868    | 0.21868    |   0.0 | 33.21
Neigh   | 0.0014181  | 0.0014181  | 0.0014181  |   0.0 |  0.22
Comm    | 0.00097353 | 0.00097353 | 0.00097353 |   0.0 |  0.15
Output  | 0.012843   | 0.012843   | 0.012843   |   0.0 |  1.95
Modify  | 0.42159    | 0.42159    | 0.42159    |   0.0 | 64.03
Other   |            | 0.002408   |            |       |  0.37

Nlocal:        7.00000 ave           7 max           7 min
Histogram: 1 0 0 0 0 0 0 0 0 0
Nghost:        0.00000 ave           0 max           0 min
Histogram: 1 0 0 0 0 0 0 0 0 0
Neighs:        0.00000 ave           0 max           0 min
Histogram: 1 0 0 0 0 0 0 0 0 0

Total # of neighbors = 0
Ave neighs/atom = 0.0000000
Ave special neighs/atom = 0.0000000
Neighbor list builds = 50
Dangerous builds = 50

# delate all atoms in garbage
delete_atoms group garbage bond yes mol yes
WARNING: Ignoring 'compress yes' for molecular system (src/delete_atoms.cpp:125)
Deleted 0 atoms, new total = 7

# jump to loop lable until step > 0
next step
jump SELF loop
variable step loop ${duration}
variable step loop 50

variable newatoms equal ${bondcounter}/2
variable newatoms equal 0/2
if "${bondcounter} > 0" then    "fix depositatoms all deposit ${newatoms} 3 1 5748 region box near 2.0"
# fix ID group-ID deposit N type M seed keyword values
#fix depositatoms all deposit 1 3 1 5748 region box near 0.1

# assing all atoms that have a bond to the garbage group
group garbage dynamic all every 1 var hasbond
dynamic group garbage defined

# append new values on dump file
dump_modify 1 append yes

# perform n steps in loop
run 5000
Last active /omp style is bond_style harmonic/omp
WARNING: One or more dynamic groups may not be updated at correct point in timestep (src/fix_group.cpp:172)
Per MPI rank memory allocation (min/avg/max) = 28.33 | 28.33 | 28.33 Mbytes
Step Temp PotEng v_bondcounter 
  235000   0.77588237            0            0 
  235100   0.94360059            0            0 
  235200   0.82296078            0            0 
  235300   0.76089504            0            0 
  235400   0.73249919            0            0 
  235500   0.76209916            0            0 
  235600   0.68440277            0            0 
  235700   0.67761553            0            0 
  235800   0.71039491            0            0 
  235900    1.0486424            0            0 
  236000   0.96318346            0            0 
  236100   0.79446581            0            0 
  236200   0.53982222            0            0 
  236300   0.62238115            0            0 
  236400   0.62831624            0            0 
  236500    0.6349218            0            0 
  236600   0.42202487            0            0 
  236700   0.35758445            0            0 
  236800   0.51068528            0            0 
  236900   0.77205936            0            0 
  237000     1.069634            0            0 
  237100    1.3555222            0            0 
  237200    1.3647455            0            0 
  237300      1.41562            0            0 
  237400    1.2923406            0            0 
  237500    1.7095887            0            0 
  237600     1.477679            0            0 
  237700    1.3354157            0            0 
  237800     1.224957            0            0 
  237900    1.1997067            0            0 
  238000      1.45649            0            0 
  238100    1.4877725            0            0 
  238200    1.5686471            0            0 
  238300    1.5887189            0            0 
  238400    1.0337824            0            0 
  238500   0.96004429            0            0 
  238600   0.70193249            0            0 
  238700   0.99905866            0            0 
  238800    1.0027201            0            0 
  238900   0.80756464            0            0 
  239000   0.73743371            0            0 
  239100   0.65736065            0            0 
  239200   0.94007022            0            0 
  239300   0.94329047            0            0 
  239400   0.95884578            0            0 
  239500    1.2031796            0            0 
  239600    1.3801142            0            0 
  239700    1.4430839            0            0 
  239800    1.6237087            0            0 
  239900    1.4105572            0            0 
  240000    1.6409292            0            0 
Loop time of 0.6641 on 16 procs for 5000 steps with 7 atoms

Performance: 6505045.136 tau/day, 7528.987 timesteps/s
412.6% CPU use with 1 MPI tasks x 16 OpenMP threads

MPI task timing breakdown:
Section |  min time  |  avg time  |  max time  |%varavg| %total
---------------------------------------------------------------
Pair    | 0.00048913 | 0.00048913 | 0.00048913 |   0.0 |  0.07
Bond    | 0.21308    | 0.21308    | 0.21308    |   0.0 | 32.08
Neigh   | 0.0014906  | 0.0014906  | 0.0014906  |   0.0 |  0.22
Comm    | 0.00094543 | 0.00094543 | 0.00094543 |   0.0 |  0.14
Output  | 0.012562   | 0.012562   | 0.012562   |   0.0 |  1.89
Modify  | 0.43305    | 0.43305    | 0.43305    |   0.0 | 65.21
Other   |            | 0.002482   |            |       |  0.37

Nlocal:        7.00000 ave           7 max           7 min
Histogram: 1 0 0 0 0 0 0 0 0 0
Nghost:        0.00000 ave           0 max           0 min
Histogram: 1 0 0 0 0 0 0 0 0 0
Neighs:        0.00000 ave           0 max           0 min
Histogram: 1 0 0 0 0 0 0 0 0 0

Total # of neighbors = 0
Ave neighs/atom = 0.0000000
Ave special neighs/atom = 0.0000000
Neighbor list builds = 50
Dangerous builds = 50

# delate all atoms in garbage
delete_atoms group garbage bond yes mol yes
WARNING: Ignoring 'compress yes' for molecular system (src/delete_atoms.cpp:125)
Deleted 0 atoms, new total = 7

# jump to loop lable until step > 0
next step
jump SELF loop
variable step loop ${duration}
variable step loop 50

variable newatoms equal ${bondcounter}/2
variable newatoms equal 0/2
if "${bondcounter} > 0" then    "fix depositatoms all deposit ${newatoms} 3 1 5748 region box near 2.0"
# fix ID group-ID deposit N type M seed keyword values
#fix depositatoms all deposit 1 3 1 5748 region box near 0.1

# assing all atoms that have a bond to the garbage group
group garbage dynamic all every 1 var hasbond
dynamic group garbage defined

# append new values on dump file
dump_modify 1 append yes

# perform n steps in loop
run 5000
Last active /omp style is bond_style harmonic/omp
WARNING: One or more dynamic groups may not be updated at correct point in timestep (src/fix_group.cpp:172)
Per MPI rank memory allocation (min/avg/max) = 28.33 | 28.33 | 28.33 Mbytes
Step Temp PotEng v_bondcounter 
  240000    1.6409292            0            0 
  240100    1.8643009            0            0 
  240200      1.62652            0            0 
  240300    1.4024642            0            0 
  240400    1.3764753            0            0 
  240500    1.1829655            0            0 
  240600    1.1873943            0            0 
  240700    0.8996944            0            0 
  240800   0.80726143            0            0 
  240900    1.1615095            0            0 
  241000    1.4755278            0            0 
  241100    1.5959882            0            0 
  241200    1.5838041            0            0 
  241300    1.5727925            0            0 
  241400    1.7440644            0            0 
  241500    1.4229384            0            0 
  241600    1.2550263            0            0 
  241700    1.1992319            0            0 
  241800   0.94022276            0            0 
  241900    1.0709789            0            0 
  242000    1.1414271            0            0 
  242100    1.3615711            0            0 
  242200    1.4295147            0            0 
  242300    1.1370692            0            0 
  242400    1.2326708            0            0 
  242500    1.2086787            0            0 
  242600    1.3540797            0            0 
  242700    1.4188339            0            0 
  242800    1.1260113            0            0 
  242900   0.82475376            0            0 
  243000   0.65096839            0            0 
  243100   0.90619623            0            0 
  243200   0.57409871            0            0 
  243300   0.53079679            0            0 
  243400   0.75255132            0            0 
  243500    1.1431017            0            0 
  243600    1.2099791            0            0 
  243700    1.0767917            0            0 
  243800    1.0193382            0            0 
  243900    0.8740923            0            0 
  244000   0.96539437            0            0 
  244100   0.86021249            0            0 
  244200   0.95330081            0            0 
  244300   0.92154392            0            0 
  244400    1.1629269            0            0 
  244500   0.97478623            0            0 
  244600    1.2904282            0            0 
  244700    1.4004107            0            0 
  244800    1.1006196            0            0 
  244900    1.2558622            0            0 
  245000    1.3966864            0            0 
Loop time of 0.665286 on 16 procs for 5000 steps with 7 atoms

Performance: 6493443.099 tau/day, 7515.559 timesteps/s
426.0% CPU use with 1 MPI tasks x 16 OpenMP threads

MPI task timing breakdown:
Section |  min time  |  avg time  |  max time  |%varavg| %total
---------------------------------------------------------------
Pair    | 0.00048612 | 0.00048612 | 0.00048612 |   0.0 |  0.07
Bond    | 0.22067    | 0.22067    | 0.22067    |   0.0 | 33.17
Neigh   | 0.0013712  | 0.0013712  | 0.0013712  |   0.0 |  0.21
Comm    | 0.00096411 | 0.00096411 | 0.00096411 |   0.0 |  0.14
Output  | 0.012319   | 0.012319   | 0.012319   |   0.0 |  1.85
Modify  | 0.42698    | 0.42698    | 0.42698    |   0.0 | 64.18
Other   |            | 0.002495   |            |       |  0.38

Nlocal:        7.00000 ave           7 max           7 min
Histogram: 1 0 0 0 0 0 0 0 0 0
Nghost:        0.00000 ave           0 max           0 min
Histogram: 1 0 0 0 0 0 0 0 0 0
Neighs:        0.00000 ave           0 max           0 min
Histogram: 1 0 0 0 0 0 0 0 0 0

Total # of neighbors = 0
Ave neighs/atom = 0.0000000
Ave special neighs/atom = 0.0000000
Neighbor list builds = 50
Dangerous builds = 50

# delate all atoms in garbage
delete_atoms group garbage bond yes mol yes
WARNING: Ignoring 'compress yes' for molecular system (src/delete_atoms.cpp:125)
Deleted 0 atoms, new total = 7

# jump to loop lable until step > 0
next step
jump SELF loop
variable step loop ${duration}
variable step loop 50

variable newatoms equal ${bondcounter}/2
variable newatoms equal 0/2
if "${bondcounter} > 0" then    "fix depositatoms all deposit ${newatoms} 3 1 5748 region box near 2.0"
# fix ID group-ID deposit N type M seed keyword values
#fix depositatoms all deposit 1 3 1 5748 region box near 0.1

# assing all atoms that have a bond to the garbage group
group garbage dynamic all every 1 var hasbond
dynamic group garbage defined

# append new values on dump file
dump_modify 1 append yes

# perform n steps in loop
run 5000
Last active /omp style is bond_style harmonic/omp
WARNING: One or more dynamic groups may not be updated at correct point in timestep (src/fix_group.cpp:172)
Per MPI rank memory allocation (min/avg/max) = 28.33 | 28.33 | 28.33 Mbytes
Step Temp PotEng v_bondcounter 
  245000    1.3966864            0            0 
  245100    1.2883939            0            0 
  245200   0.98562408            0            0 
  245300    1.0937173            0            0 
  245400    1.0580206            0            0 
  245500    1.0526326            0            0 
  245600    0.9069973            0            0 
  245700    1.2628364            0            0 
  245800    1.2311721            0            0 
  245900    1.1905317            0            0 
  246000    1.1726953            0            0 
  246100    1.2052858            0            0 
  246200     1.111704            0            0 
  246300   0.87981348            0            0 
  246400   0.75211738            0            0 
  246500   0.94851504            0            0 
  246600   0.59815143            0            0 
  246700   0.53624619            0            0 
  246800   0.80238725            0            0 
  246900   0.86609412            0            0 
  247000   0.85417246            0            0 
  247100   0.95466137            0            0 
  247200    1.1167688            0            0 
  247300   0.94846538            0            0 
  247400   0.88377512            0            0 
  247500   0.98525954            0            0 
  247600     1.194981            0            0 
  247700   0.86577057            0            0 
  247800    1.1257912            0            0 
  247900    1.0230706            0            0 
  248000    1.1474778            0            0 
  248100    1.2889919            0            0 
  248200    1.1327334            0            0 
  248300    0.7104576            0            0 
  248400   0.81667457            0            0 
  248500   0.85577006            0            0 
  248600    0.9002341            0            0 
  248700   0.62183017            0            0 
  248800    1.0150222            0            0 
  248900    1.1503327            0            0 
  249000    1.3685207            0            0 
  249100    1.3256559            0            0 
  249200     1.320186            0            0 
  249300    1.3630523            0            0 
  249400    1.4850398            0            0 
  249500     1.138385            0            0 
  249600    0.9013897            0            0 
  249700    1.3405565            0            0 
  249800    1.4633292            0            0 
  249900    1.0405487            0            0 
  250000   0.74645954            0            0 
Loop time of 0.658414 on 16 procs for 5000 steps with 7 atoms

Performance: 6561225.574 tau/day, 7594.011 timesteps/s
435.4% CPU use with 1 MPI tasks x 16 OpenMP threads

MPI task timing breakdown:
Section |  min time  |  avg time  |  max time  |%varavg| %total
---------------------------------------------------------------
Pair    | 0.00048437 | 0.00048437 | 0.00048437 |   0.0 |  0.07
Bond    | 0.21789    | 0.21789    | 0.21789    |   0.0 | 33.09
Neigh   | 0.0014051  | 0.0014051  | 0.0014051  |   0.0 |  0.21
Comm    | 0.0009522  | 0.0009522  | 0.0009522  |   0.0 |  0.14
Output  | 0.012412   | 0.012412   | 0.012412   |   0.0 |  1.89
Modify  | 0.42299    | 0.42299    | 0.42299    |   0.0 | 64.24
Other   |            | 0.002282   |            |       |  0.35

Nlocal:        7.00000 ave           7 max           7 min
Histogram: 1 0 0 0 0 0 0 0 0 0
Nghost:        0.00000 ave           0 max           0 min
Histogram: 1 0 0 0 0 0 0 0 0 0
Neighs:        0.00000 ave           0 max           0 min
Histogram: 1 0 0 0 0 0 0 0 0 0

Total # of neighbors = 0
Ave neighs/atom = 0.0000000
Ave special neighs/atom = 0.0000000
Neighbor list builds = 50
Dangerous builds = 50

# delate all atoms in garbage
delete_atoms group garbage bond yes mol yes
WARNING: Ignoring 'compress yes' for molecular system (src/delete_atoms.cpp:125)
Deleted 0 atoms, new total = 7

# jump to loop lable until step > 0
next step
jump SELF loop

# end of loop
label break

print "duration: ${duration}"
duration: 50
print "ALL DONE"
ALL DONE




Total wall time: 0:00:33
