LAMMPS (29 Oct 2020)
  using 16 OpenMP thread(s) per MPI task
package omp 0
using multi-threaded neighbor list subroutines
# Agent Based Simulation Of Biological Systems

# remove previous dump file
shell rm dump.out
shell rm dump.foo
WARNING: Shell command 'rm' failed with error 'No such file or directory' (src/input.cpp:1218)
shell rm dump.bar
WARNING: Shell command 'rm' failed with error 'No such file or directory' (src/input.cpp:1218)

#       --- SET UP OF INPUT VARIABLES ---

#
variable rnseed index 10
variable probability equal ceil(random(1,100,${rnseed}))
variable probability equal ceil(random(1,100,10))

# duration : int = N number of steps for the current run
variable time index 50  #default value
variable duration equal ${time}
variable duration equal 50

#       --- SIMULATION BOX PROPERTIES ---

# sym measure units and atoms style
units       lj
atom_style  full

# box dimension, boudaries and structure
dimension   3
boundary    f f f
lattice     fcc 3.52
Lattice spacing in x,y,z = 1.0435320 1.0435320 1.0435320

# flag2 = on or off for bonded interactions
newton on off

# define simulation box
region      box block 0 30 0 30 0 30
create_box  3 box  bond/types 1 extra/bond/per/atom 10
Created orthogonal box = (0.0000000 0.0000000 0.0000000) to (31.305960 31.305960 31.305960)
  1 by 1 by 1 MPI processor grid

# create simulation walls
fix xwalls all wall/reflect xlo EDGE xhi EDGE
fix ywalls all wall/reflect ylo EDGE yhi EDGE
fix zwalls all wall/reflect zlo EDGE zhi EDGE

#       --- ATOMS PROPRETIES AND FORCE FIELDS ---

# creation of atoms of 2 types in randoms spots
create_atoms    1 random 5 5783 box
Created 5 atoms
  create_atoms CPU = 0.001 seconds
create_atoms    2 random 5 7483 box
Created 5 atoms
  create_atoms CPU = 0.000 seconds

# atoms mass
mass 1 10.948
mass 2 10.467
mass 3 10.578   # new atoms generated by type 1-2 bond

# assing atoms to cerian groups
group g1 type 1
5 atoms in group g1
group g2 type 2
5 atoms in group g2
group agents  union g1 g2
10 atoms in group agents

# force fields style and coefficient
pair_style zero 5.0
pair_coeff * *

# bond style and coefficients
bond_style  harmonic
bond_coeff * 100 1.1

#       --- SIMULATION ---

# set time steps
timestep 0.01   # seconds

# This command sets parameters that affect
# the building of pairwise neighbor lists
neighbor 0.001 bin
neigh_modify every 10 delay 100

# print thermodinamic inf every N timesteps
thermo 100

# fix ID group-ID bond/create Nevery itype jtype Rmin bondtype keyword values
# this fix will attempt to create new bond btw atoms of
# type 1 and 2 every Nevery timestep
fix bonds all bond/create 10 1 2 1.0 1 prob 0.9 85784

# set velocity for all atoms
velocity all create 300.0 4928459 rot yes dist gaussian

# perform plain time integration
# to update position and velocity
# and simulate Brownioan motion
fix 1 all nve
fix 2 all langevin 1.0 1.0 10.0 904297

# compute if atoms has a bonds
# and total number of bonds btw all atoms
compute 1 agents property/atom nbonds
compute 2 agents reduce sum c_1
thermo_style custom step temp pe c_2
run 0
Last active /omp style is bond_style harmonic/omp
Neighbor list info ...
  update every 10 steps, delay 100 steps, check yes
  max neighbors/atom: 2000, page size: 100000
  master list distance cutoff = 5.001
  ghost atom cutoff = 5.001
  binsize = 2.5005, bins = 13 13 13
  2 neighbor lists, perpetual/occasional/extra = 1 1 0
  (1) pair zero, perpetual
      attributes: half, newton on, omp
      pair build: half/bin/newton/omp
      stencil: half/bin/3d/newton
      bin: standard
  (2) fix bond/create, occasional, copy from (1)
      attributes: half, newton on
      pair build: copy
      stencil: none
      bin: none
Per MPI rank memory allocation (min/avg/max) = 20.73 | 20.73 | 20.73 Mbytes
Step Temp PotEng c_2 
       0          300            0            0 
Loop time of 5.85e-07 on 16 procs for 0 steps with 10 atoms

170.9% CPU use with 1 MPI tasks x 16 OpenMP threads

MPI task timing breakdown:
Section |  min time  |  avg time  |  max time  |%varavg| %total
---------------------------------------------------------------
Pair    | 0          | 0          | 0          |   0.0 |  0.00
Bond    | 0          | 0          | 0          |   0.0 |  0.00
Neigh   | 0          | 0          | 0          |   0.0 |  0.00
Comm    | 0          | 0          | 0          |   0.0 |  0.00
Output  | 0          | 0          | 0          |   0.0 |  0.00
Modify  | 0          | 0          | 0          |   0.0 |  0.00
Other   |            | 5.85e-07   |            |       |100.00

Nlocal:        10.0000 ave          10 max          10 min
Histogram: 1 0 0 0 0 0 0 0 0 0
Nghost:        0.00000 ave           0 max           0 min
Histogram: 1 0 0 0 0 0 0 0 0 0
Neighs:        0.00000 ave           0 max           0 min
Histogram: 1 0 0 0 0 0 0 0 0 0

Total # of neighbors = 0
Ave neighs/atom = 0.0000000
Ave special neighs/atom = 0.0000000
Neighbor list builds = 0
Dangerous builds = 0
# this lines are necessary to insure that the “hasbond” and "newatoms"
# variables are current when the group command invokes it.

# hasbond : boolean = true if atom I has a bond with atom J
variable hasbond atom "c_1 > 0.0"

# newatoms : int = N number of atoms to generate
variable newatoms equal ceil(c_2)

# dumps atoms information
dump 1 all custom 10 dump.out id x y z type
#dump dump-2 garbage custom 100 dump.foo id #check

#       --- LOOP---

label loop
variable step loop ${duration}
variable step loop 50

# fix ID group-ID deposit N type M seed keyword values
#fix depositatoms all deposit 1 3 1 5748 region box near 0.1

# assing all atoms that have a bond to the garbage group
group garbage dynamic all every 1 var hasbond
dynamic group garbage defined

# append new values on dump file
dump_modify 1 append yes

# perform n steps in loop
run 1000
Last active /omp style is bond_style harmonic/omp
WARNING: One or more dynamic groups may not be updated at correct point in timestep (src/fix_group.cpp:172)
Per MPI rank memory allocation (min/avg/max) = 22.11 | 22.11 | 22.11 Mbytes
Step Temp PotEng c_2 
       0          300            0            0 
     100    249.73178            0            0 
     200    207.22733            0            0 
     300    169.18514            0            0 
     400    140.82169            0            0 
     500    120.68814   0.23138973          0.2 
     600    91.003023    7.7940129          0.2 
     700    71.202114    10.931089          0.2 
     800    64.929057     1.745213          0.2 
     900    56.146332   0.71024455          0.2 
    1000    43.937008    4.2381593          0.2 
Loop time of 0.153401 on 16 procs for 1000 steps with 10 atoms

Performance: 5632310.857 tau/day, 6518.878 timesteps/s
373.8% CPU use with 1 MPI tasks x 16 OpenMP threads

MPI task timing breakdown:
Section |  min time  |  avg time  |  max time  |%varavg| %total
---------------------------------------------------------------
Pair    | 0.00011821 | 0.00011821 | 0.00011821 |   0.0 |  0.08
Bond    | 0.053349   | 0.053349   | 0.053349   |   0.0 | 34.78
Neigh   | 0.00034048 | 0.00034048 | 0.00034048 |   0.0 |  0.22
Comm    | 0.00018169 | 0.00018169 | 0.00018169 |   0.0 |  0.12
Output  | 0.0034463  | 0.0034463  | 0.0034463  |   0.0 |  2.25
Modify  | 0.095453   | 0.095453   | 0.095453   |   0.0 | 62.22
Other   |            | 0.0005114  |            |       |  0.33

Nlocal:        10.0000 ave          10 max          10 min
Histogram: 1 0 0 0 0 0 0 0 0 0
Nghost:        0.00000 ave           0 max           0 min
Histogram: 1 0 0 0 0 0 0 0 0 0
Neighs:        0.00000 ave           0 max           0 min
Histogram: 1 0 0 0 0 0 0 0 0 0

Total # of neighbors = 0
Ave neighs/atom = 0.0000000
Ave special neighs/atom = 0.2
Neighbor list builds = 10
Dangerous builds = 9

# delate all atoms in garbage
delete_atoms group garbage bond yes mol yes
WARNING: Ignoring 'compress yes' for molecular system (src/delete_atoms.cpp:125)
Deleted 2 atoms, new total = 8
Deleted 1 bonds, new total = 0

# jump to loop lable until step > 0
next step
jump SELF loop
variable step loop ${duration}
variable step loop 50

# fix ID group-ID deposit N type M seed keyword values
#fix depositatoms all deposit 1 3 1 5748 region box near 0.1

# assing all atoms that have a bond to the garbage group
group garbage dynamic all every 1 var hasbond
dynamic group garbage defined

# append new values on dump file
dump_modify 1 append yes

# perform n steps in loop
run 1000
Last active /omp style is bond_style harmonic/omp
WARNING: One or more dynamic groups may not be updated at correct point in timestep (src/fix_group.cpp:172)
Per MPI rank memory allocation (min/avg/max) = 28.33 | 28.33 | 28.33 Mbytes
Step Temp PotEng c_2 
    1000    45.981987            0            0 
    1100    36.557354            0            0 
    1200    30.531376            0            0 
    1300    25.036451            0            0 
    1400    20.126779            0            0 
    1500    16.858267            0            0 
    1600    14.384857            0            0 
    1700    12.990706            0            0 
    1800     11.54869            0            0 
    1900    10.008064            0            0 
    2000    7.2888037            0            0 
Loop time of 0.149269 on 16 procs for 1000 steps with 8 atoms

Performance: 5788189.486 tau/day, 6699.293 timesteps/s
364.1% CPU use with 1 MPI tasks x 16 OpenMP threads

MPI task timing breakdown:
Section |  min time  |  avg time  |  max time  |%varavg| %total
---------------------------------------------------------------
Pair    | 0.00011706 | 0.00011706 | 0.00011706 |   0.0 |  0.08
Bond    | 0.048063   | 0.048063   | 0.048063   |   0.0 | 32.20
Neigh   | 0.00028941 | 0.00028941 | 0.00028941 |   0.0 |  0.19
Comm    | 0.00017762 | 0.00017762 | 0.00017762 |   0.0 |  0.12
Output  | 0.0029225  | 0.0029225  | 0.0029225  |   0.0 |  1.96
Modify  | 0.097207   | 0.097207   | 0.097207   |   0.0 | 65.12
Other   |            | 0.0004925  |            |       |  0.33

Nlocal:        8.00000 ave           8 max           8 min
Histogram: 1 0 0 0 0 0 0 0 0 0
Nghost:        0.00000 ave           0 max           0 min
Histogram: 1 0 0 0 0 0 0 0 0 0
Neighs:        0.00000 ave           0 max           0 min
Histogram: 1 0 0 0 0 0 0 0 0 0

Total # of neighbors = 0
Ave neighs/atom = 0.0000000
Ave special neighs/atom = 0.0000000
Neighbor list builds = 10
Dangerous builds = 10

# delate all atoms in garbage
delete_atoms group garbage bond yes mol yes
WARNING: Ignoring 'compress yes' for molecular system (src/delete_atoms.cpp:125)
Deleted 0 atoms, new total = 8

# jump to loop lable until step > 0
next step
jump SELF loop
variable step loop ${duration}
variable step loop 50

# fix ID group-ID deposit N type M seed keyword values
#fix depositatoms all deposit 1 3 1 5748 region box near 0.1

# assing all atoms that have a bond to the garbage group
group garbage dynamic all every 1 var hasbond
dynamic group garbage defined

# append new values on dump file
dump_modify 1 append yes

# perform n steps in loop
run 1000
Last active /omp style is bond_style harmonic/omp
WARNING: One or more dynamic groups may not be updated at correct point in timestep (src/fix_group.cpp:172)
Per MPI rank memory allocation (min/avg/max) = 28.33 | 28.33 | 28.33 Mbytes
Step Temp PotEng c_2 
    2000    7.2888037            0            0 
    2100     5.966494            0            0 
    2200    5.2636084            0            0 
    2300    4.0085652            0            0 
    2400    3.0466778            0            0 
    2500    2.1947241            0            0 
    2600    1.6959899            0            0 
    2700    1.3728241            0            0 
    2800    1.2703055            0            0 
    2900    1.2650848            0            0 
    3000    1.3450151            0            0 
Loop time of 0.150195 on 16 procs for 1000 steps with 8 atoms

Performance: 5752538.804 tau/day, 6658.031 timesteps/s
360.9% CPU use with 1 MPI tasks x 16 OpenMP threads

MPI task timing breakdown:
Section |  min time  |  avg time  |  max time  |%varavg| %total
---------------------------------------------------------------
Pair    | 0.00012058 | 0.00012058 | 0.00012058 |   0.0 |  0.08
Bond    | 0.051394   | 0.051394   | 0.051394   |   0.0 | 34.22
Neigh   | 0.00033015 | 0.00033015 | 0.00033015 |   0.0 |  0.22
Comm    | 0.00018083 | 0.00018083 | 0.00018083 |   0.0 |  0.12
Output  | 0.002998   | 0.002998   | 0.002998   |   0.0 |  2.00
Modify  | 0.094632   | 0.094632   | 0.094632   |   0.0 | 63.01
Other   |            | 0.0005388  |            |       |  0.36

Nlocal:        8.00000 ave           8 max           8 min
Histogram: 1 0 0 0 0 0 0 0 0 0
Nghost:        0.00000 ave           0 max           0 min
Histogram: 1 0 0 0 0 0 0 0 0 0
Neighs:        0.00000 ave           0 max           0 min
Histogram: 1 0 0 0 0 0 0 0 0 0

Total # of neighbors = 0
Ave neighs/atom = 0.0000000
Ave special neighs/atom = 0.0000000
Neighbor list builds = 10
Dangerous builds = 10

# delate all atoms in garbage
delete_atoms group garbage bond yes mol yes
WARNING: Ignoring 'compress yes' for molecular system (src/delete_atoms.cpp:125)
Deleted 0 atoms, new total = 8

# jump to loop lable until step > 0
next step
jump SELF loop
variable step loop ${duration}
variable step loop 50

# fix ID group-ID deposit N type M seed keyword values
#fix depositatoms all deposit 1 3 1 5748 region box near 0.1

# assing all atoms that have a bond to the garbage group
group garbage dynamic all every 1 var hasbond
dynamic group garbage defined

# append new values on dump file
dump_modify 1 append yes

# perform n steps in loop
run 1000
Last active /omp style is bond_style harmonic/omp
WARNING: One or more dynamic groups may not be updated at correct point in timestep (src/fix_group.cpp:172)
Per MPI rank memory allocation (min/avg/max) = 28.33 | 28.33 | 28.33 Mbytes
Step Temp PotEng c_2 
    3000    1.3450151            0            0 
    3100    1.3191407            0            0 
    3200    1.5866317            0            0 
    3300    1.4568386            0            0 
    3400    1.9100498            0            0 
    3500    1.6893904            0            0 
    3600    1.3637205            0            0 
    3700    1.0841984            0            0 
    3800    1.3979366            0            0 
    3900    1.2460886            0            0 
    4000    1.0680104            0            0 
Loop time of 0.138782 on 16 procs for 1000 steps with 8 atoms

Performance: 6225581.884 tau/day, 7205.535 timesteps/s
405.8% CPU use with 1 MPI tasks x 16 OpenMP threads

MPI task timing breakdown:
Section |  min time  |  avg time  |  max time  |%varavg| %total
---------------------------------------------------------------
Pair    | 0.00011653 | 0.00011653 | 0.00011653 |   0.0 |  0.08
Bond    | 0.04499    | 0.04499    | 0.04499    |   0.0 | 32.42
Neigh   | 0.00041194 | 0.00041194 | 0.00041194 |   0.0 |  0.30
Comm    | 0.00017276 | 0.00017276 | 0.00017276 |   0.0 |  0.12
Output  | 0.0027603  | 0.0027603  | 0.0027603  |   0.0 |  1.99
Modify  | 0.089847   | 0.089847   | 0.089847   |   0.0 | 64.74
Other   |            | 0.0004845  |            |       |  0.35

Nlocal:        8.00000 ave           8 max           8 min
Histogram: 1 0 0 0 0 0 0 0 0 0
Nghost:        0.00000 ave           0 max           0 min
Histogram: 1 0 0 0 0 0 0 0 0 0
Neighs:        1.00000 ave           1 max           1 min
Histogram: 1 0 0 0 0 0 0 0 0 0

Total # of neighbors = 1
Ave neighs/atom = 0.125
Ave special neighs/atom = 0.0000000
Neighbor list builds = 10
Dangerous builds = 10

# delate all atoms in garbage
delete_atoms group garbage bond yes mol yes
WARNING: Ignoring 'compress yes' for molecular system (src/delete_atoms.cpp:125)
Deleted 0 atoms, new total = 8

# jump to loop lable until step > 0
next step
jump SELF loop
variable step loop ${duration}
variable step loop 50

# fix ID group-ID deposit N type M seed keyword values
#fix depositatoms all deposit 1 3 1 5748 region box near 0.1

# assing all atoms that have a bond to the garbage group
group garbage dynamic all every 1 var hasbond
dynamic group garbage defined

# append new values on dump file
dump_modify 1 append yes

# perform n steps in loop
run 1000
Last active /omp style is bond_style harmonic/omp
WARNING: One or more dynamic groups may not be updated at correct point in timestep (src/fix_group.cpp:172)
Per MPI rank memory allocation (min/avg/max) = 28.33 | 28.33 | 28.33 Mbytes
Step Temp PotEng c_2 
    4000    1.0680104            0            0 
    4100    1.0642609            0            0 
    4200   0.74983187            0            0 
    4300   0.51032026            0            0 
    4400   0.65145959            0            0 
    4500   0.67832023            0            0 
    4600   0.64857875            0            0 
    4700   0.64648838            0            0 
    4800   0.92829421            0            0 
    4900   0.91263803            0            0 
    5000   0.84976601            0            0 
Loop time of 0.143595 on 16 procs for 1000 steps with 8 atoms

Performance: 6016926.450 tau/day, 6964.035 timesteps/s
388.6% CPU use with 1 MPI tasks x 16 OpenMP threads

MPI task timing breakdown:
Section |  min time  |  avg time  |  max time  |%varavg| %total
---------------------------------------------------------------
Pair    | 0.00011355 | 0.00011355 | 0.00011355 |   0.0 |  0.08
Bond    | 0.048209   | 0.048209   | 0.048209   |   0.0 | 33.57
Neigh   | 0.00024856 | 0.00024856 | 0.00024856 |   0.0 |  0.17
Comm    | 0.00017282 | 0.00017282 | 0.00017282 |   0.0 |  0.12
Output  | 0.0028731  | 0.0028731  | 0.0028731  |   0.0 |  2.00
Modify  | 0.091447   | 0.091447   | 0.091447   |   0.0 | 63.68
Other   |            | 0.000531   |            |       |  0.37

Nlocal:        8.00000 ave           8 max           8 min
Histogram: 1 0 0 0 0 0 0 0 0 0
Nghost:        0.00000 ave           0 max           0 min
Histogram: 1 0 0 0 0 0 0 0 0 0
Neighs:        1.00000 ave           1 max           1 min
Histogram: 1 0 0 0 0 0 0 0 0 0

Total # of neighbors = 1
Ave neighs/atom = 0.125
Ave special neighs/atom = 0.0000000
Neighbor list builds = 10
Dangerous builds = 10

# delate all atoms in garbage
delete_atoms group garbage bond yes mol yes
WARNING: Ignoring 'compress yes' for molecular system (src/delete_atoms.cpp:125)
Deleted 0 atoms, new total = 8

# jump to loop lable until step > 0
next step
jump SELF loop
variable step loop ${duration}
variable step loop 50

# fix ID group-ID deposit N type M seed keyword values
#fix depositatoms all deposit 1 3 1 5748 region box near 0.1

# assing all atoms that have a bond to the garbage group
group garbage dynamic all every 1 var hasbond
dynamic group garbage defined

# append new values on dump file
dump_modify 1 append yes

# perform n steps in loop
run 1000
Last active /omp style is bond_style harmonic/omp
WARNING: One or more dynamic groups may not be updated at correct point in timestep (src/fix_group.cpp:172)
Per MPI rank memory allocation (min/avg/max) = 28.33 | 28.33 | 28.33 Mbytes
Step Temp PotEng c_2 
    5000   0.84976601            0            0 
    5100    0.4693458            0            0 
    5200   0.47151721            0            0 
    5300   0.82473475            0            0 
    5400   0.99559354            0            0 
    5500    1.3982299            0            0 
    5600     1.610268            0            0 
    5700    1.4814556            0            0 
    5800    1.2427662            0            0 
    5900    1.2664962            0            0 
    6000     1.188992            0            0 
Loop time of 0.140225 on 16 procs for 1000 steps with 8 atoms

Performance: 6161541.893 tau/day, 7131.414 timesteps/s
404.1% CPU use with 1 MPI tasks x 16 OpenMP threads

MPI task timing breakdown:
Section |  min time  |  avg time  |  max time  |%varavg| %total
---------------------------------------------------------------
Pair    | 0.0001126  | 0.0001126  | 0.0001126  |   0.0 |  0.08
Bond    | 0.046268   | 0.046268   | 0.046268   |   0.0 | 33.00
Neigh   | 0.00033651 | 0.00033651 | 0.00033651 |   0.0 |  0.24
Comm    | 0.00017809 | 0.00017809 | 0.00017809 |   0.0 |  0.13
Output  | 0.0029545  | 0.0029545  | 0.0029545  |   0.0 |  2.11
Modify  | 0.089565   | 0.089565   | 0.089565   |   0.0 | 63.87
Other   |            | 0.0008103  |            |       |  0.58

Nlocal:        8.00000 ave           8 max           8 min
Histogram: 1 0 0 0 0 0 0 0 0 0
Nghost:        0.00000 ave           0 max           0 min
Histogram: 1 0 0 0 0 0 0 0 0 0
Neighs:        0.00000 ave           0 max           0 min
Histogram: 1 0 0 0 0 0 0 0 0 0

Total # of neighbors = 0
Ave neighs/atom = 0.0000000
Ave special neighs/atom = 0.0000000
Neighbor list builds = 10
Dangerous builds = 10

# delate all atoms in garbage
delete_atoms group garbage bond yes mol yes
WARNING: Ignoring 'compress yes' for molecular system (src/delete_atoms.cpp:125)
Deleted 0 atoms, new total = 8

# jump to loop lable until step > 0
next step
jump SELF loop
variable step loop ${duration}
variable step loop 50

# fix ID group-ID deposit N type M seed keyword values
#fix depositatoms all deposit 1 3 1 5748 region box near 0.1

# assing all atoms that have a bond to the garbage group
group garbage dynamic all every 1 var hasbond
dynamic group garbage defined

# append new values on dump file
dump_modify 1 append yes

# perform n steps in loop
run 1000
Last active /omp style is bond_style harmonic/omp
WARNING: One or more dynamic groups may not be updated at correct point in timestep (src/fix_group.cpp:172)
Per MPI rank memory allocation (min/avg/max) = 28.33 | 28.33 | 28.33 Mbytes
Step Temp PotEng c_2 
    6000     1.188992            0            0 
    6100   0.98820639            0            0 
    6200   0.91767108            0            0 
    6300   0.50090485            0            0 
    6400   0.62880351            0            0 
    6500   0.50710677            0            0 
    6600   0.73128509            0            0 
    6700   0.67388451            0            0 
    6800   0.79313333            0            0 
    6900   0.94276178            0            0 
    7000   0.93640085            0            0 
Loop time of 0.147296 on 16 procs for 1000 steps with 8 atoms

Performance: 5865737.784 tau/day, 6789.048 timesteps/s
399.3% CPU use with 1 MPI tasks x 16 OpenMP threads

MPI task timing breakdown:
Section |  min time  |  avg time  |  max time  |%varavg| %total
---------------------------------------------------------------
Pair    | 0.00011742 | 0.00011742 | 0.00011742 |   0.0 |  0.08
Bond    | 0.052043   | 0.052043   | 0.052043   |   0.0 | 35.33
Neigh   | 0.00029771 | 0.00029771 | 0.00029771 |   0.0 |  0.20
Comm    | 0.00017608 | 0.00017608 | 0.00017608 |   0.0 |  0.12
Output  | 0.0029647  | 0.0029647  | 0.0029647  |   0.0 |  2.01
Modify  | 0.091222   | 0.091222   | 0.091222   |   0.0 | 61.93
Other   |            | 0.0004756  |            |       |  0.32

Nlocal:        8.00000 ave           8 max           8 min
Histogram: 1 0 0 0 0 0 0 0 0 0
Nghost:        0.00000 ave           0 max           0 min
Histogram: 1 0 0 0 0 0 0 0 0 0
Neighs:        0.00000 ave           0 max           0 min
Histogram: 1 0 0 0 0 0 0 0 0 0

Total # of neighbors = 0
Ave neighs/atom = 0.0000000
Ave special neighs/atom = 0.0000000
Neighbor list builds = 10
Dangerous builds = 10

# delate all atoms in garbage
delete_atoms group garbage bond yes mol yes
WARNING: Ignoring 'compress yes' for molecular system (src/delete_atoms.cpp:125)
Deleted 0 atoms, new total = 8

# jump to loop lable until step > 0
next step
jump SELF loop
variable step loop ${duration}
variable step loop 50

# fix ID group-ID deposit N type M seed keyword values
#fix depositatoms all deposit 1 3 1 5748 region box near 0.1

# assing all atoms that have a bond to the garbage group
group garbage dynamic all every 1 var hasbond
dynamic group garbage defined

# append new values on dump file
dump_modify 1 append yes

# perform n steps in loop
run 1000
Last active /omp style is bond_style harmonic/omp
WARNING: One or more dynamic groups may not be updated at correct point in timestep (src/fix_group.cpp:172)
Per MPI rank memory allocation (min/avg/max) = 28.33 | 28.33 | 28.33 Mbytes
Step Temp PotEng c_2 
    7000   0.93640085            0            0 
    7100   0.96921035            0            0 
    7200    1.2394763            0            0 
    7300   0.97625548            0            0 
    7400   0.97049134            0            0 
    7500   0.98226872            0            0 
    7600    1.1259004            0            0 
    7700    1.0879912            0            0 
    7800    1.1806234            0            0 
    7900     1.068024            0            0 
    8000    1.2261376            0            0 
Loop time of 0.149342 on 16 procs for 1000 steps with 8 atoms

Performance: 5785374.421 tau/day, 6696.035 timesteps/s
372.0% CPU use with 1 MPI tasks x 16 OpenMP threads

MPI task timing breakdown:
Section |  min time  |  avg time  |  max time  |%varavg| %total
---------------------------------------------------------------
Pair    | 0.00017603 | 0.00017603 | 0.00017603 |   0.0 |  0.12
Bond    | 0.051217   | 0.051217   | 0.051217   |   0.0 | 34.30
Neigh   | 0.00093803 | 0.00093803 | 0.00093803 |   0.0 |  0.63
Comm    | 0.00017575 | 0.00017575 | 0.00017575 |   0.0 |  0.12
Output  | 0.0028094  | 0.0028094  | 0.0028094  |   0.0 |  1.88
Modify  | 0.093548   | 0.093548   | 0.093548   |   0.0 | 62.64
Other   |            | 0.0004773  |            |       |  0.32

Nlocal:        8.00000 ave           8 max           8 min
Histogram: 1 0 0 0 0 0 0 0 0 0
Nghost:        0.00000 ave           0 max           0 min
Histogram: 1 0 0 0 0 0 0 0 0 0
Neighs:        1.00000 ave           1 max           1 min
Histogram: 1 0 0 0 0 0 0 0 0 0

Total # of neighbors = 1
Ave neighs/atom = 0.125
Ave special neighs/atom = 0.0000000
Neighbor list builds = 10
Dangerous builds = 10

# delate all atoms in garbage
delete_atoms group garbage bond yes mol yes
WARNING: Ignoring 'compress yes' for molecular system (src/delete_atoms.cpp:125)
Deleted 0 atoms, new total = 8

# jump to loop lable until step > 0
next step
jump SELF loop
variable step loop ${duration}
variable step loop 50

# fix ID group-ID deposit N type M seed keyword values
#fix depositatoms all deposit 1 3 1 5748 region box near 0.1

# assing all atoms that have a bond to the garbage group
group garbage dynamic all every 1 var hasbond
dynamic group garbage defined

# append new values on dump file
dump_modify 1 append yes

# perform n steps in loop
run 1000
Last active /omp style is bond_style harmonic/omp
WARNING: One or more dynamic groups may not be updated at correct point in timestep (src/fix_group.cpp:172)
Per MPI rank memory allocation (min/avg/max) = 28.33 | 28.33 | 28.33 Mbytes
Step Temp PotEng c_2 
    8000    1.2261376            0            0 
    8100     1.456957            0            0 
    8200    1.1655581            0            0 
    8300    1.2628349            0            0 
    8400    1.3471458            0            0 
    8500    1.0896285            0            0 
    8600    1.0005218            0            0 
    8700    1.0141642            0            0 
    8800   0.95253212            0            0 
    8900    1.1900497            0            0 
    9000    1.3885049            0            0 
Loop time of 0.147475 on 16 procs for 1000 steps with 8 atoms

Performance: 5858619.191 tau/day, 6780.809 timesteps/s
362.7% CPU use with 1 MPI tasks x 16 OpenMP threads

MPI task timing breakdown:
Section |  min time  |  avg time  |  max time  |%varavg| %total
---------------------------------------------------------------
Pair    | 0.00012564 | 0.00012564 | 0.00012564 |   0.0 |  0.09
Bond    | 0.048977   | 0.048977   | 0.048977   |   0.0 | 33.21
Neigh   | 0.00028174 | 0.00028174 | 0.00028174 |   0.0 |  0.19
Comm    | 0.00017622 | 0.00017622 | 0.00017622 |   0.0 |  0.12
Output  | 0.002928   | 0.002928   | 0.002928   |   0.0 |  1.99
Modify  | 0.094489   | 0.094489   | 0.094489   |   0.0 | 64.07
Other   |            | 0.0004974  |            |       |  0.34

Nlocal:        8.00000 ave           8 max           8 min
Histogram: 1 0 0 0 0 0 0 0 0 0
Nghost:        0.00000 ave           0 max           0 min
Histogram: 1 0 0 0 0 0 0 0 0 0
Neighs:        1.00000 ave           1 max           1 min
Histogram: 1 0 0 0 0 0 0 0 0 0

Total # of neighbors = 1
Ave neighs/atom = 0.125
Ave special neighs/atom = 0.0000000
Neighbor list builds = 10
Dangerous builds = 10

# delate all atoms in garbage
delete_atoms group garbage bond yes mol yes
WARNING: Ignoring 'compress yes' for molecular system (src/delete_atoms.cpp:125)
Deleted 0 atoms, new total = 8

# jump to loop lable until step > 0
next step
jump SELF loop
variable step loop ${duration}
variable step loop 50

# fix ID group-ID deposit N type M seed keyword values
#fix depositatoms all deposit 1 3 1 5748 region box near 0.1

# assing all atoms that have a bond to the garbage group
group garbage dynamic all every 1 var hasbond
dynamic group garbage defined

# append new values on dump file
dump_modify 1 append yes

# perform n steps in loop
run 1000
Last active /omp style is bond_style harmonic/omp
WARNING: One or more dynamic groups may not be updated at correct point in timestep (src/fix_group.cpp:172)
Per MPI rank memory allocation (min/avg/max) = 28.33 | 28.33 | 28.33 Mbytes
Step Temp PotEng c_2 
    9000    1.3885049            0            0 
    9100    1.5929568            0            0 
    9200    1.3780641            0            0 
    9300    1.3837881            0            0 
    9400    1.4670008            0            0 
    9500    1.4531351            0            0 
    9600    1.4534028            0            0 
    9700    1.2794188            0            0 
    9800    1.3545913            0            0 
    9900    1.3137319            0            0 
   10000    1.2315134            0            0 
Loop time of 0.14345 on 16 procs for 1000 steps with 8 atoms

Performance: 6023012.047 tau/day, 6971.079 timesteps/s
371.8% CPU use with 1 MPI tasks x 16 OpenMP threads

MPI task timing breakdown:
Section |  min time  |  avg time  |  max time  |%varavg| %total
---------------------------------------------------------------
Pair    | 0.00011497 | 0.00011497 | 0.00011497 |   0.0 |  0.08
Bond    | 0.046627   | 0.046627   | 0.046627   |   0.0 | 32.50
Neigh   | 0.00031162 | 0.00031162 | 0.00031162 |   0.0 |  0.22
Comm    | 0.00018825 | 0.00018825 | 0.00018825 |   0.0 |  0.13
Output  | 0.002854   | 0.002854   | 0.002854   |   0.0 |  1.99
Modify  | 0.092813   | 0.092813   | 0.092813   |   0.0 | 64.70
Other   |            | 0.0005412  |            |       |  0.38

Nlocal:        8.00000 ave           8 max           8 min
Histogram: 1 0 0 0 0 0 0 0 0 0
Nghost:        0.00000 ave           0 max           0 min
Histogram: 1 0 0 0 0 0 0 0 0 0
Neighs:        0.00000 ave           0 max           0 min
Histogram: 1 0 0 0 0 0 0 0 0 0

Total # of neighbors = 0
Ave neighs/atom = 0.0000000
Ave special neighs/atom = 0.0000000
Neighbor list builds = 10
Dangerous builds = 10

# delate all atoms in garbage
delete_atoms group garbage bond yes mol yes
WARNING: Ignoring 'compress yes' for molecular system (src/delete_atoms.cpp:125)
Deleted 0 atoms, new total = 8

# jump to loop lable until step > 0
next step
jump SELF loop
variable step loop ${duration}
variable step loop 50

# fix ID group-ID deposit N type M seed keyword values
#fix depositatoms all deposit 1 3 1 5748 region box near 0.1

# assing all atoms that have a bond to the garbage group
group garbage dynamic all every 1 var hasbond
dynamic group garbage defined

# append new values on dump file
dump_modify 1 append yes

# perform n steps in loop
run 1000
Last active /omp style is bond_style harmonic/omp
WARNING: One or more dynamic groups may not be updated at correct point in timestep (src/fix_group.cpp:172)
Per MPI rank memory allocation (min/avg/max) = 28.33 | 28.33 | 28.33 Mbytes
Step Temp PotEng c_2 
   10000    1.2315134            0            0 
   10100    1.2195246            0            0 
   10200   0.97437163            0            0 
   10300    1.0190155            0            0 
   10400   0.84273172            0            0 
   10500   0.86308911            0            0 
   10600   0.88232383            0            0 
   10700    1.1983991            0            0 
   10800   0.92021876            0            0 
   10900    1.1246893            0            0 
   11000    1.0626734            0            0 
Loop time of 0.143952 on 16 procs for 1000 steps with 8 atoms

Performance: 6002018.179 tau/day, 6946.780 timesteps/s
378.9% CPU use with 1 MPI tasks x 16 OpenMP threads

MPI task timing breakdown:
Section |  min time  |  avg time  |  max time  |%varavg| %total
---------------------------------------------------------------
Pair    | 0.0001223  | 0.0001223  | 0.0001223  |   0.0 |  0.08
Bond    | 0.048678   | 0.048678   | 0.048678   |   0.0 | 33.82
Neigh   | 0.00030472 | 0.00030472 | 0.00030472 |   0.0 |  0.21
Comm    | 0.00017531 | 0.00017531 | 0.00017531 |   0.0 |  0.12
Output  | 0.0027845  | 0.0027845  | 0.0027845  |   0.0 |  1.93
Modify  | 0.091088   | 0.091088   | 0.091088   |   0.0 | 63.28
Other   |            | 0.0007993  |            |       |  0.56

Nlocal:        8.00000 ave           8 max           8 min
Histogram: 1 0 0 0 0 0 0 0 0 0
Nghost:        0.00000 ave           0 max           0 min
Histogram: 1 0 0 0 0 0 0 0 0 0
Neighs:        0.00000 ave           0 max           0 min
Histogram: 1 0 0 0 0 0 0 0 0 0

Total # of neighbors = 0
Ave neighs/atom = 0.0000000
Ave special neighs/atom = 0.0000000
Neighbor list builds = 10
Dangerous builds = 10

# delate all atoms in garbage
delete_atoms group garbage bond yes mol yes
WARNING: Ignoring 'compress yes' for molecular system (src/delete_atoms.cpp:125)
Deleted 0 atoms, new total = 8

# jump to loop lable until step > 0
next step
jump SELF loop
variable step loop ${duration}
variable step loop 50

# fix ID group-ID deposit N type M seed keyword values
#fix depositatoms all deposit 1 3 1 5748 region box near 0.1

# assing all atoms that have a bond to the garbage group
group garbage dynamic all every 1 var hasbond
dynamic group garbage defined

# append new values on dump file
dump_modify 1 append yes

# perform n steps in loop
run 1000
Last active /omp style is bond_style harmonic/omp
WARNING: One or more dynamic groups may not be updated at correct point in timestep (src/fix_group.cpp:172)
Per MPI rank memory allocation (min/avg/max) = 28.33 | 28.33 | 28.33 Mbytes
Step Temp PotEng c_2 
   11000    1.0626734            0            0 
   11100    1.0249014            0            0 
   11200    1.2102964            0            0 
   11300   0.82995384            0            0 
   11400   0.77143636            0            0 
   11500   0.92842361            0            0 
   11600    1.6132371            0            0 
   11700    1.5407883            0            0 
   11800    1.3727862            0            0 
   11900    1.5602729            0            0 
   12000    1.8867593            0            0 
Loop time of 0.151627 on 16 procs for 1000 steps with 8 atoms

Performance: 5698180.027 tau/day, 6595.116 timesteps/s
377.2% CPU use with 1 MPI tasks x 16 OpenMP threads

MPI task timing breakdown:
Section |  min time  |  avg time  |  max time  |%varavg| %total
---------------------------------------------------------------
Pair    | 0.00012014 | 0.00012014 | 0.00012014 |   0.0 |  0.08
Bond    | 0.055395   | 0.055395   | 0.055395   |   0.0 | 36.53
Neigh   | 0.00031974 | 0.00031974 | 0.00031974 |   0.0 |  0.21
Comm    | 0.00018215 | 0.00018215 | 0.00018215 |   0.0 |  0.12
Output  | 0.0030579  | 0.0030579  | 0.0030579  |   0.0 |  2.02
Modify  | 0.092066   | 0.092066   | 0.092066   |   0.0 | 60.72
Other   |            | 0.0004863  |            |       |  0.32

Nlocal:        8.00000 ave           8 max           8 min
Histogram: 1 0 0 0 0 0 0 0 0 0
Nghost:        0.00000 ave           0 max           0 min
Histogram: 1 0 0 0 0 0 0 0 0 0
Neighs:        0.00000 ave           0 max           0 min
Histogram: 1 0 0 0 0 0 0 0 0 0

Total # of neighbors = 0
Ave neighs/atom = 0.0000000
Ave special neighs/atom = 0.0000000
Neighbor list builds = 10
Dangerous builds = 10

# delate all atoms in garbage
delete_atoms group garbage bond yes mol yes
WARNING: Ignoring 'compress yes' for molecular system (src/delete_atoms.cpp:125)
Deleted 0 atoms, new total = 8

# jump to loop lable until step > 0
next step
jump SELF loop
variable step loop ${duration}
variable step loop 50

# fix ID group-ID deposit N type M seed keyword values
#fix depositatoms all deposit 1 3 1 5748 region box near 0.1

# assing all atoms that have a bond to the garbage group
group garbage dynamic all every 1 var hasbond
dynamic group garbage defined

# append new values on dump file
dump_modify 1 append yes

# perform n steps in loop
run 1000
Last active /omp style is bond_style harmonic/omp
WARNING: One or more dynamic groups may not be updated at correct point in timestep (src/fix_group.cpp:172)
Per MPI rank memory allocation (min/avg/max) = 28.33 | 28.33 | 28.33 Mbytes
Step Temp PotEng c_2 
   12000    1.8867593            0            0 
   12100    1.5640179            0            0 
   12200    1.2444651            0            0 
   12300    1.3893276            0            0 
   12400    1.6357935            0            0 
   12500    1.5180067            0            0 
   12600   0.96299996            0            0 
   12700    1.0649684            0            0 
   12800    1.3290246            0            0 
   12900    1.7142286            0            0 
   13000    1.7002015            0            0 
Loop time of 0.147791 on 16 procs for 1000 steps with 8 atoms

Performance: 5846103.596 tau/day, 6766.324 timesteps/s
349.1% CPU use with 1 MPI tasks x 16 OpenMP threads

MPI task timing breakdown:
Section |  min time  |  avg time  |  max time  |%varavg| %total
---------------------------------------------------------------
Pair    | 0.0001311  | 0.0001311  | 0.0001311  |   0.0 |  0.09
Bond    | 0.048709   | 0.048709   | 0.048709   |   0.0 | 32.96
Neigh   | 0.00031356 | 0.00031356 | 0.00031356 |   0.0 |  0.21
Comm    | 0.00017563 | 0.00017563 | 0.00017563 |   0.0 |  0.12
Output  | 0.0028165  | 0.0028165  | 0.0028165  |   0.0 |  1.91
Modify  | 0.095131   | 0.095131   | 0.095131   |   0.0 | 64.37
Other   |            | 0.0005144  |            |       |  0.35

Nlocal:        8.00000 ave           8 max           8 min
Histogram: 1 0 0 0 0 0 0 0 0 0
Nghost:        0.00000 ave           0 max           0 min
Histogram: 1 0 0 0 0 0 0 0 0 0
Neighs:        0.00000 ave           0 max           0 min
Histogram: 1 0 0 0 0 0 0 0 0 0

Total # of neighbors = 0
Ave neighs/atom = 0.0000000
Ave special neighs/atom = 0.0000000
Neighbor list builds = 10
Dangerous builds = 10

# delate all atoms in garbage
delete_atoms group garbage bond yes mol yes
WARNING: Ignoring 'compress yes' for molecular system (src/delete_atoms.cpp:125)
Deleted 0 atoms, new total = 8

# jump to loop lable until step > 0
next step
jump SELF loop
variable step loop ${duration}
variable step loop 50

# fix ID group-ID deposit N type M seed keyword values
#fix depositatoms all deposit 1 3 1 5748 region box near 0.1

# assing all atoms that have a bond to the garbage group
group garbage dynamic all every 1 var hasbond
dynamic group garbage defined

# append new values on dump file
dump_modify 1 append yes

# perform n steps in loop
run 1000
Last active /omp style is bond_style harmonic/omp
WARNING: One or more dynamic groups may not be updated at correct point in timestep (src/fix_group.cpp:172)
Per MPI rank memory allocation (min/avg/max) = 28.33 | 28.33 | 28.33 Mbytes
Step Temp PotEng c_2 
   13000    1.7002015            0            0 
   13100    1.8333173            0            0 
   13200    1.8966971            0            0 
   13300    1.6085164            0            0 
   13400    1.6162005            0            0 
   13500    1.6067492            0            0 
   13600    1.6207475            0            0 
   13700    1.4218041            0            0 
   13800    1.4030863            0            0 
   13900    1.5292634            0            0 
   14000    1.7024975            0            0 
Loop time of 0.142897 on 16 procs for 1000 steps with 8 atoms

Performance: 6046313.206 tau/day, 6998.048 timesteps/s
398.6% CPU use with 1 MPI tasks x 16 OpenMP threads

MPI task timing breakdown:
Section |  min time  |  avg time  |  max time  |%varavg| %total
---------------------------------------------------------------
Pair    | 0.00011437 | 0.00011437 | 0.00011437 |   0.0 |  0.08
Bond    | 0.046286   | 0.046286   | 0.046286   |   0.0 | 32.39
Neigh   | 0.0006291  | 0.0006291  | 0.0006291  |   0.0 |  0.44
Comm    | 0.00019257 | 0.00019257 | 0.00019257 |   0.0 |  0.13
Output  | 0.0028666  | 0.0028666  | 0.0028666  |   0.0 |  2.01
Modify  | 0.090069   | 0.090069   | 0.090069   |   0.0 | 63.03
Other   |            | 0.002739   |            |       |  1.92

Nlocal:        8.00000 ave           8 max           8 min
Histogram: 1 0 0 0 0 0 0 0 0 0
Nghost:        0.00000 ave           0 max           0 min
Histogram: 1 0 0 0 0 0 0 0 0 0
Neighs:        0.00000 ave           0 max           0 min
Histogram: 1 0 0 0 0 0 0 0 0 0

Total # of neighbors = 0
Ave neighs/atom = 0.0000000
Ave special neighs/atom = 0.0000000
Neighbor list builds = 10
Dangerous builds = 10

# delate all atoms in garbage
delete_atoms group garbage bond yes mol yes
WARNING: Ignoring 'compress yes' for molecular system (src/delete_atoms.cpp:125)
Deleted 0 atoms, new total = 8

# jump to loop lable until step > 0
next step
jump SELF loop
variable step loop ${duration}
variable step loop 50

# fix ID group-ID deposit N type M seed keyword values
#fix depositatoms all deposit 1 3 1 5748 region box near 0.1

# assing all atoms that have a bond to the garbage group
group garbage dynamic all every 1 var hasbond
dynamic group garbage defined

# append new values on dump file
dump_modify 1 append yes

# perform n steps in loop
run 1000
Last active /omp style is bond_style harmonic/omp
WARNING: One or more dynamic groups may not be updated at correct point in timestep (src/fix_group.cpp:172)
Per MPI rank memory allocation (min/avg/max) = 28.33 | 28.33 | 28.33 Mbytes
Step Temp PotEng c_2 
   14000    1.7024975            0            0 
   14100    1.2525493            0            0 
   14200    1.3838148            0            0 
   14300     1.173612            0            0 
   14400    1.0223641            0            0 
   14500    1.0919722            0            0 
   14600    1.0054333            0            0 
   14700   0.98729704            0            0 
   14800    1.1175195            0            0 
   14900    1.0126466            0            0 
   15000   0.98562431            0            0 
Loop time of 0.143702 on 16 procs for 1000 steps with 8 atoms

Performance: 6012424.717 tau/day, 6958.825 timesteps/s
397.5% CPU use with 1 MPI tasks x 16 OpenMP threads

MPI task timing breakdown:
Section |  min time  |  avg time  |  max time  |%varavg| %total
---------------------------------------------------------------
Pair    | 0.0001144  | 0.0001144  | 0.0001144  |   0.0 |  0.08
Bond    | 0.047069   | 0.047069   | 0.047069   |   0.0 | 32.75
Neigh   | 0.00028557 | 0.00028557 | 0.00028557 |   0.0 |  0.20
Comm    | 0.0001735  | 0.0001735  | 0.0001735  |   0.0 |  0.12
Output  | 0.0027479  | 0.0027479  | 0.0027479  |   0.0 |  1.91
Modify  | 0.092806   | 0.092806   | 0.092806   |   0.0 | 64.58
Other   |            | 0.0005067  |            |       |  0.35

Nlocal:        8.00000 ave           8 max           8 min
Histogram: 1 0 0 0 0 0 0 0 0 0
Nghost:        0.00000 ave           0 max           0 min
Histogram: 1 0 0 0 0 0 0 0 0 0
Neighs:        1.00000 ave           1 max           1 min
Histogram: 1 0 0 0 0 0 0 0 0 0

Total # of neighbors = 1
Ave neighs/atom = 0.125
Ave special neighs/atom = 0.0000000
Neighbor list builds = 10
Dangerous builds = 10

# delate all atoms in garbage
delete_atoms group garbage bond yes mol yes
WARNING: Ignoring 'compress yes' for molecular system (src/delete_atoms.cpp:125)
Deleted 0 atoms, new total = 8

# jump to loop lable until step > 0
next step
jump SELF loop
variable step loop ${duration}
variable step loop 50

# fix ID group-ID deposit N type M seed keyword values
#fix depositatoms all deposit 1 3 1 5748 region box near 0.1

# assing all atoms that have a bond to the garbage group
group garbage dynamic all every 1 var hasbond
dynamic group garbage defined

# append new values on dump file
dump_modify 1 append yes

# perform n steps in loop
run 1000
Last active /omp style is bond_style harmonic/omp
WARNING: One or more dynamic groups may not be updated at correct point in timestep (src/fix_group.cpp:172)
Per MPI rank memory allocation (min/avg/max) = 28.33 | 28.33 | 28.33 Mbytes
Step Temp PotEng c_2 
   15000   0.98562431            0            0 
   15100   0.98983146            0            0 
   15200   0.80482069            0            0 
   15300    1.0084718            0            0 
   15400    1.0870382            0            0 
   15500    1.3485182            0            0 
   15600    1.1047513            0            0 
   15700    1.5184484            0            0 
   15800    1.5142117            0            0 
   15900    1.3297887            0            0 
   16000    1.3066741            0            0 
Loop time of 0.149608 on 16 procs for 1000 steps with 8 atoms

Performance: 5775111.194 tau/day, 6684.156 timesteps/s
356.6% CPU use with 1 MPI tasks x 16 OpenMP threads

MPI task timing breakdown:
Section |  min time  |  avg time  |  max time  |%varavg| %total
---------------------------------------------------------------
Pair    | 0.00011654 | 0.00011654 | 0.00011654 |   0.0 |  0.08
Bond    | 0.046365   | 0.046365   | 0.046365   |   0.0 | 30.99
Neigh   | 0.00027924 | 0.00027924 | 0.00027924 |   0.0 |  0.19
Comm    | 0.0001741  | 0.0001741  | 0.0001741  |   0.0 |  0.12
Output  | 0.0029599  | 0.0029599  | 0.0029599  |   0.0 |  1.98
Modify  | 0.09924    | 0.09924    | 0.09924    |   0.0 | 66.33
Other   |            | 0.0004726  |            |       |  0.32

Nlocal:        8.00000 ave           8 max           8 min
Histogram: 1 0 0 0 0 0 0 0 0 0
Nghost:        0.00000 ave           0 max           0 min
Histogram: 1 0 0 0 0 0 0 0 0 0
Neighs:        1.00000 ave           1 max           1 min
Histogram: 1 0 0 0 0 0 0 0 0 0

Total # of neighbors = 1
Ave neighs/atom = 0.125
Ave special neighs/atom = 0.0000000
Neighbor list builds = 10
Dangerous builds = 10

# delate all atoms in garbage
delete_atoms group garbage bond yes mol yes
WARNING: Ignoring 'compress yes' for molecular system (src/delete_atoms.cpp:125)
Deleted 0 atoms, new total = 8

# jump to loop lable until step > 0
next step
jump SELF loop
variable step loop ${duration}
variable step loop 50

# fix ID group-ID deposit N type M seed keyword values
#fix depositatoms all deposit 1 3 1 5748 region box near 0.1

# assing all atoms that have a bond to the garbage group
group garbage dynamic all every 1 var hasbond
dynamic group garbage defined

# append new values on dump file
dump_modify 1 append yes

# perform n steps in loop
run 1000
Last active /omp style is bond_style harmonic/omp
WARNING: One or more dynamic groups may not be updated at correct point in timestep (src/fix_group.cpp:172)
Per MPI rank memory allocation (min/avg/max) = 28.33 | 28.33 | 28.33 Mbytes
Step Temp PotEng c_2 
   16000    1.3066741            0            0 
   16100    1.5032188            0            0 
   16200    1.1267103            0            0 
   16300   0.88299633            0            0 
   16400   0.81630377            0            0 
   16500   0.80298984            0            0 
   16600    1.0947621            0            0 
   16700    1.0975777            0            0 
   16800    1.0948568            0            0 
   16900    1.3751925            0            0 
   17000    1.2872346            0            0 
Loop time of 0.149077 on 16 procs for 1000 steps with 8 atoms

Performance: 5795671.275 tau/day, 6707.953 timesteps/s
386.0% CPU use with 1 MPI tasks x 16 OpenMP threads

MPI task timing breakdown:
Section |  min time  |  avg time  |  max time  |%varavg| %total
---------------------------------------------------------------
Pair    | 0.00012537 | 0.00012537 | 0.00012537 |   0.0 |  0.08
Bond    | 0.04888    | 0.04888    | 0.04888    |   0.0 | 32.79
Neigh   | 0.00028839 | 0.00028839 | 0.00028839 |   0.0 |  0.19
Comm    | 0.00018168 | 0.00018168 | 0.00018168 |   0.0 |  0.12
Output  | 0.0028177  | 0.0028177  | 0.0028177  |   0.0 |  1.89
Modify  | 0.096295   | 0.096295   | 0.096295   |   0.0 | 64.59
Other   |            | 0.0004889  |            |       |  0.33

Nlocal:        8.00000 ave           8 max           8 min
Histogram: 1 0 0 0 0 0 0 0 0 0
Nghost:        0.00000 ave           0 max           0 min
Histogram: 1 0 0 0 0 0 0 0 0 0
Neighs:        1.00000 ave           1 max           1 min
Histogram: 1 0 0 0 0 0 0 0 0 0

Total # of neighbors = 1
Ave neighs/atom = 0.125
Ave special neighs/atom = 0.0000000
Neighbor list builds = 10
Dangerous builds = 10

# delate all atoms in garbage
delete_atoms group garbage bond yes mol yes
WARNING: Ignoring 'compress yes' for molecular system (src/delete_atoms.cpp:125)
Deleted 0 atoms, new total = 8

# jump to loop lable until step > 0
next step
jump SELF loop
variable step loop ${duration}
variable step loop 50

# fix ID group-ID deposit N type M seed keyword values
#fix depositatoms all deposit 1 3 1 5748 region box near 0.1

# assing all atoms that have a bond to the garbage group
group garbage dynamic all every 1 var hasbond
dynamic group garbage defined

# append new values on dump file
dump_modify 1 append yes

# perform n steps in loop
run 1000
Last active /omp style is bond_style harmonic/omp
WARNING: One or more dynamic groups may not be updated at correct point in timestep (src/fix_group.cpp:172)
Per MPI rank memory allocation (min/avg/max) = 28.33 | 28.33 | 28.33 Mbytes
Step Temp PotEng c_2 
   17000    1.2872346            0            0 
   17100    1.1689556            0            0 
   17200    1.3916016            0            0 
   17300    1.6981624            0            0 
   17400    1.3767468            0            0 
   17500    1.0654971            0            0 
   17600    1.0249353            0            0 
   17700    1.5168409            0            0 
   17800    1.6745961            0            0 
   17900    1.8705249            0            0 
   18000    1.8481931            0            0 
Loop time of 0.142917 on 16 procs for 1000 steps with 8 atoms

Performance: 6045463.312 tau/day, 6997.064 timesteps/s
392.1% CPU use with 1 MPI tasks x 16 OpenMP threads

MPI task timing breakdown:
Section |  min time  |  avg time  |  max time  |%varavg| %total
---------------------------------------------------------------
Pair    | 0.00011445 | 0.00011445 | 0.00011445 |   0.0 |  0.08
Bond    | 0.046974   | 0.046974   | 0.046974   |   0.0 | 32.87
Neigh   | 0.00054756 | 0.00054756 | 0.00054756 |   0.0 |  0.38
Comm    | 0.00018107 | 0.00018107 | 0.00018107 |   0.0 |  0.13
Output  | 0.002925   | 0.002925   | 0.002925   |   0.0 |  2.05
Modify  | 0.091696   | 0.091696   | 0.091696   |   0.0 | 64.16
Other   |            | 0.0004797  |            |       |  0.34

Nlocal:        8.00000 ave           8 max           8 min
Histogram: 1 0 0 0 0 0 0 0 0 0
Nghost:        0.00000 ave           0 max           0 min
Histogram: 1 0 0 0 0 0 0 0 0 0
Neighs:        1.00000 ave           1 max           1 min
Histogram: 1 0 0 0 0 0 0 0 0 0

Total # of neighbors = 1
Ave neighs/atom = 0.125
Ave special neighs/atom = 0.0000000
Neighbor list builds = 10
Dangerous builds = 10

# delate all atoms in garbage
delete_atoms group garbage bond yes mol yes
WARNING: Ignoring 'compress yes' for molecular system (src/delete_atoms.cpp:125)
Deleted 0 atoms, new total = 8

# jump to loop lable until step > 0
next step
jump SELF loop
variable step loop ${duration}
variable step loop 50

# fix ID group-ID deposit N type M seed keyword values
#fix depositatoms all deposit 1 3 1 5748 region box near 0.1

# assing all atoms that have a bond to the garbage group
group garbage dynamic all every 1 var hasbond
dynamic group garbage defined

# append new values on dump file
dump_modify 1 append yes

# perform n steps in loop
run 1000
Last active /omp style is bond_style harmonic/omp
WARNING: One or more dynamic groups may not be updated at correct point in timestep (src/fix_group.cpp:172)
Per MPI rank memory allocation (min/avg/max) = 28.33 | 28.33 | 28.33 Mbytes
Step Temp PotEng c_2 
   18000    1.8481931            0            0 
   18100    1.1952675            0            0 
   18200    1.3127125            0            0 
   18300    1.3157911            0            0 
   18400    1.4243838            0            0 
   18500    1.6082422            0            0 
   18600    1.6121601            0            0 
   18700    1.4625438            0            0 
   18800    1.5070378            0            0 
   18900    1.3617299            0            0 
   19000   0.95933143            0            0 
Loop time of 0.144825 on 16 procs for 1000 steps with 8 atoms

Performance: 5965804.712 tau/day, 6904.867 timesteps/s
390.3% CPU use with 1 MPI tasks x 16 OpenMP threads

MPI task timing breakdown:
Section |  min time  |  avg time  |  max time  |%varavg| %total
---------------------------------------------------------------
Pair    | 0.00012011 | 0.00012011 | 0.00012011 |   0.0 |  0.08
Bond    | 0.047825   | 0.047825   | 0.047825   |   0.0 | 33.02
Neigh   | 0.00033408 | 0.00033408 | 0.00033408 |   0.0 |  0.23
Comm    | 0.00018174 | 0.00018174 | 0.00018174 |   0.0 |  0.13
Output  | 0.0029192  | 0.0029192  | 0.0029192  |   0.0 |  2.02
Modify  | 0.092943   | 0.092943   | 0.092943   |   0.0 | 64.18
Other   |            | 0.0005023  |            |       |  0.35

Nlocal:        8.00000 ave           8 max           8 min
Histogram: 1 0 0 0 0 0 0 0 0 0
Nghost:        0.00000 ave           0 max           0 min
Histogram: 1 0 0 0 0 0 0 0 0 0
Neighs:        1.00000 ave           1 max           1 min
Histogram: 1 0 0 0 0 0 0 0 0 0

Total # of neighbors = 1
Ave neighs/atom = 0.125
Ave special neighs/atom = 0.0000000
Neighbor list builds = 10
Dangerous builds = 10

# delate all atoms in garbage
delete_atoms group garbage bond yes mol yes
WARNING: Ignoring 'compress yes' for molecular system (src/delete_atoms.cpp:125)
Deleted 0 atoms, new total = 8

# jump to loop lable until step > 0
next step
jump SELF loop
variable step loop ${duration}
variable step loop 50

# fix ID group-ID deposit N type M seed keyword values
#fix depositatoms all deposit 1 3 1 5748 region box near 0.1

# assing all atoms that have a bond to the garbage group
group garbage dynamic all every 1 var hasbond
dynamic group garbage defined

# append new values on dump file
dump_modify 1 append yes

# perform n steps in loop
run 1000
Last active /omp style is bond_style harmonic/omp
WARNING: One or more dynamic groups may not be updated at correct point in timestep (src/fix_group.cpp:172)
Per MPI rank memory allocation (min/avg/max) = 28.33 | 28.33 | 28.33 Mbytes
Step Temp PotEng c_2 
   19000   0.95933143            0            0 
   19100   0.79575776            0            0 
   19200   0.84933099            0            0 
   19300    1.2792444            0            0 
   19400    1.4078572            0            0 
   19500    1.4441139            0            0 
   19600    1.3920502            0            0 
   19700    1.2776905            0            0 
   19800   0.85271805            0            0 
   19900    1.0441726            0            0 
   20000    1.1449263            0            0 
Loop time of 0.144599 on 16 procs for 1000 steps with 8 atoms

Performance: 5975160.387 tau/day, 6915.695 timesteps/s
397.4% CPU use with 1 MPI tasks x 16 OpenMP threads

MPI task timing breakdown:
Section |  min time  |  avg time  |  max time  |%varavg| %total
---------------------------------------------------------------
Pair    | 0.0001156  | 0.0001156  | 0.0001156  |   0.0 |  0.08
Bond    | 0.050541   | 0.050541   | 0.050541   |   0.0 | 34.95
Neigh   | 0.00029326 | 0.00029326 | 0.00029326 |   0.0 |  0.20
Comm    | 0.00018285 | 0.00018285 | 0.00018285 |   0.0 |  0.13
Output  | 0.0028388  | 0.0028388  | 0.0028388  |   0.0 |  1.96
Modify  | 0.090111   | 0.090111   | 0.090111   |   0.0 | 62.32
Other   |            | 0.0005156  |            |       |  0.36

Nlocal:        8.00000 ave           8 max           8 min
Histogram: 1 0 0 0 0 0 0 0 0 0
Nghost:        0.00000 ave           0 max           0 min
Histogram: 1 0 0 0 0 0 0 0 0 0
Neighs:        1.00000 ave           1 max           1 min
Histogram: 1 0 0 0 0 0 0 0 0 0

Total # of neighbors = 1
Ave neighs/atom = 0.125
Ave special neighs/atom = 0.0000000
Neighbor list builds = 10
Dangerous builds = 10

# delate all atoms in garbage
delete_atoms group garbage bond yes mol yes
WARNING: Ignoring 'compress yes' for molecular system (src/delete_atoms.cpp:125)
Deleted 0 atoms, new total = 8

# jump to loop lable until step > 0
next step
jump SELF loop
variable step loop ${duration}
variable step loop 50

# fix ID group-ID deposit N type M seed keyword values
#fix depositatoms all deposit 1 3 1 5748 region box near 0.1

# assing all atoms that have a bond to the garbage group
group garbage dynamic all every 1 var hasbond
dynamic group garbage defined

# append new values on dump file
dump_modify 1 append yes

# perform n steps in loop
run 1000
Last active /omp style is bond_style harmonic/omp
WARNING: One or more dynamic groups may not be updated at correct point in timestep (src/fix_group.cpp:172)
Per MPI rank memory allocation (min/avg/max) = 28.33 | 28.33 | 28.33 Mbytes
Step Temp PotEng c_2 
   20000    1.1449263            0            0 
   20100    1.2684568            0            0 
   20200    1.3080123            0            0 
   20300    1.4999303            0            0 
   20400    1.4514204            0            0 
   20500    1.3087492            0            0 
   20600    1.6368059            0            0 
   20700     2.012024            0            0 
   20800    1.8288117            0            0 
   20900    1.6583264            0            0 
   21000    1.5935189            0            0 
Loop time of 0.151176 on 16 procs for 1000 steps with 8 atoms

Performance: 5715190.430 tau/day, 6614.804 timesteps/s
354.9% CPU use with 1 MPI tasks x 16 OpenMP threads

MPI task timing breakdown:
Section |  min time  |  avg time  |  max time  |%varavg| %total
---------------------------------------------------------------
Pair    | 0.00012627 | 0.00012627 | 0.00012627 |   0.0 |  0.08
Bond    | 0.054617   | 0.054617   | 0.054617   |   0.0 | 36.13
Neigh   | 0.00030796 | 0.00030796 | 0.00030796 |   0.0 |  0.20
Comm    | 0.00017928 | 0.00017928 | 0.00017928 |   0.0 |  0.12
Output  | 0.0028926  | 0.0028926  | 0.0028926  |   0.0 |  1.91
Modify  | 0.092582   | 0.092582   | 0.092582   |   0.0 | 61.24
Other   |            | 0.0004709  |            |       |  0.31

Nlocal:        8.00000 ave           8 max           8 min
Histogram: 1 0 0 0 0 0 0 0 0 0
Nghost:        0.00000 ave           0 max           0 min
Histogram: 1 0 0 0 0 0 0 0 0 0
Neighs:        0.00000 ave           0 max           0 min
Histogram: 1 0 0 0 0 0 0 0 0 0

Total # of neighbors = 0
Ave neighs/atom = 0.0000000
Ave special neighs/atom = 0.0000000
Neighbor list builds = 10
Dangerous builds = 10

# delate all atoms in garbage
delete_atoms group garbage bond yes mol yes
WARNING: Ignoring 'compress yes' for molecular system (src/delete_atoms.cpp:125)
Deleted 0 atoms, new total = 8

# jump to loop lable until step > 0
next step
jump SELF loop
variable step loop ${duration}
variable step loop 50

# fix ID group-ID deposit N type M seed keyword values
#fix depositatoms all deposit 1 3 1 5748 region box near 0.1

# assing all atoms that have a bond to the garbage group
group garbage dynamic all every 1 var hasbond
dynamic group garbage defined

# append new values on dump file
dump_modify 1 append yes

# perform n steps in loop
run 1000
Last active /omp style is bond_style harmonic/omp
WARNING: One or more dynamic groups may not be updated at correct point in timestep (src/fix_group.cpp:172)
Per MPI rank memory allocation (min/avg/max) = 28.33 | 28.33 | 28.33 Mbytes
Step Temp PotEng c_2 
   21000    1.5935189            0            0 
   21100    1.6620673            0            0 
   21200    1.3739278            0            0 
   21300     1.225546            0            0 
   21400   0.93879802            0            0 
   21500    1.1360372            0            0 
   21600    1.2126347            0            0 
   21700   0.98953167            0            0 
   21800   0.82949019            0            0 
   21900   0.94316335            0            0 
   22000   0.94280298            0            0 
Loop time of 0.150062 on 16 procs for 1000 steps with 8 atoms

Performance: 5757621.488 tau/day, 6663.914 timesteps/s
363.0% CPU use with 1 MPI tasks x 16 OpenMP threads

MPI task timing breakdown:
Section |  min time  |  avg time  |  max time  |%varavg| %total
---------------------------------------------------------------
Pair    | 0.00011907 | 0.00011907 | 0.00011907 |   0.0 |  0.08
Bond    | 0.049121   | 0.049121   | 0.049121   |   0.0 | 32.73
Neigh   | 0.00025255 | 0.00025255 | 0.00025255 |   0.0 |  0.17
Comm    | 0.00016908 | 0.00016908 | 0.00016908 |   0.0 |  0.11
Output  | 0.0029095  | 0.0029095  | 0.0029095  |   0.0 |  1.94
Modify  | 0.097002   | 0.097002   | 0.097002   |   0.0 | 64.64
Other   |            | 0.0004887  |            |       |  0.33

Nlocal:        8.00000 ave           8 max           8 min
Histogram: 1 0 0 0 0 0 0 0 0 0
Nghost:        0.00000 ave           0 max           0 min
Histogram: 1 0 0 0 0 0 0 0 0 0
Neighs:        0.00000 ave           0 max           0 min
Histogram: 1 0 0 0 0 0 0 0 0 0

Total # of neighbors = 0
Ave neighs/atom = 0.0000000
Ave special neighs/atom = 0.0000000
Neighbor list builds = 10
Dangerous builds = 10

# delate all atoms in garbage
delete_atoms group garbage bond yes mol yes
WARNING: Ignoring 'compress yes' for molecular system (src/delete_atoms.cpp:125)
Deleted 0 atoms, new total = 8

# jump to loop lable until step > 0
next step
jump SELF loop
variable step loop ${duration}
variable step loop 50

# fix ID group-ID deposit N type M seed keyword values
#fix depositatoms all deposit 1 3 1 5748 region box near 0.1

# assing all atoms that have a bond to the garbage group
group garbage dynamic all every 1 var hasbond
dynamic group garbage defined

# append new values on dump file
dump_modify 1 append yes

# perform n steps in loop
run 1000
Last active /omp style is bond_style harmonic/omp
WARNING: One or more dynamic groups may not be updated at correct point in timestep (src/fix_group.cpp:172)
Per MPI rank memory allocation (min/avg/max) = 28.33 | 28.33 | 28.33 Mbytes
Step Temp PotEng c_2 
   22000   0.94280298            0            0 
   22100   0.92812394            0            0 
   22200    1.1628797            0            0 
   22300    1.0558808            0            0 
   22400      1.07333            0            0 
   22500    1.2722623            0            0 
   22600    1.1769798            0            0 
   22700    1.2351448            0            0 
   22800    1.1997271            0            0 
   22900    1.3421749            0            0 
   23000    1.4008934            0            0 
Loop time of 0.146838 on 16 procs for 1000 steps with 8 atoms

Performance: 5884047.169 tau/day, 6810.240 timesteps/s
386.2% CPU use with 1 MPI tasks x 16 OpenMP threads

MPI task timing breakdown:
Section |  min time  |  avg time  |  max time  |%varavg| %total
---------------------------------------------------------------
Pair    | 0.00012036 | 0.00012036 | 0.00012036 |   0.0 |  0.08
Bond    | 0.05019    | 0.05019    | 0.05019    |   0.0 | 34.18
Neigh   | 0.00032567 | 0.00032567 | 0.00032567 |   0.0 |  0.22
Comm    | 0.00017241 | 0.00017241 | 0.00017241 |   0.0 |  0.12
Output  | 0.0028627  | 0.0028627  | 0.0028627  |   0.0 |  1.95
Modify  | 0.092668   | 0.092668   | 0.092668   |   0.0 | 63.11
Other   |            | 0.0004983  |            |       |  0.34

Nlocal:        8.00000 ave           8 max           8 min
Histogram: 1 0 0 0 0 0 0 0 0 0
Nghost:        0.00000 ave           0 max           0 min
Histogram: 1 0 0 0 0 0 0 0 0 0
Neighs:        1.00000 ave           1 max           1 min
Histogram: 1 0 0 0 0 0 0 0 0 0

Total # of neighbors = 1
Ave neighs/atom = 0.125
Ave special neighs/atom = 0.0000000
Neighbor list builds = 10
Dangerous builds = 10

# delate all atoms in garbage
delete_atoms group garbage bond yes mol yes
WARNING: Ignoring 'compress yes' for molecular system (src/delete_atoms.cpp:125)
Deleted 0 atoms, new total = 8

# jump to loop lable until step > 0
next step
jump SELF loop
variable step loop ${duration}
variable step loop 50

# fix ID group-ID deposit N type M seed keyword values
#fix depositatoms all deposit 1 3 1 5748 region box near 0.1

# assing all atoms that have a bond to the garbage group
group garbage dynamic all every 1 var hasbond
dynamic group garbage defined

# append new values on dump file
dump_modify 1 append yes

# perform n steps in loop
run 1000
Last active /omp style is bond_style harmonic/omp
WARNING: One or more dynamic groups may not be updated at correct point in timestep (src/fix_group.cpp:172)
Per MPI rank memory allocation (min/avg/max) = 28.33 | 28.33 | 28.33 Mbytes
Step Temp PotEng c_2 
   23000    1.4008934            0            0 
   23100    1.6886195            0            0 
   23200    2.0033398            0            0 
   23300    2.3423433            0            0 
   23400    2.0352626            0            0 
   23500    1.8329941            0            0 
   23600    2.2063749            0            0 
   23700    1.7931087            0            0 
   23800    1.5809394            0            0 
   23900    1.8326249            0            0 
   24000    1.7215804            0            0 
Loop time of 0.146174 on 16 procs for 1000 steps with 8 atoms

Performance: 5910753.896 tau/day, 6841.150 timesteps/s
381.1% CPU use with 1 MPI tasks x 16 OpenMP threads

MPI task timing breakdown:
Section |  min time  |  avg time  |  max time  |%varavg| %total
---------------------------------------------------------------
Pair    | 0.00011875 | 0.00011875 | 0.00011875 |   0.0 |  0.08
Bond    | 0.049701   | 0.049701   | 0.049701   |   0.0 | 34.00
Neigh   | 0.00040997 | 0.00040997 | 0.00040997 |   0.0 |  0.28
Comm    | 0.00017738 | 0.00017738 | 0.00017738 |   0.0 |  0.12
Output  | 0.0030366  | 0.0030366  | 0.0030366  |   0.0 |  2.08
Modify  | 0.092277   | 0.092277   | 0.092277   |   0.0 | 63.13
Other   |            | 0.000453   |            |       |  0.31

Nlocal:        8.00000 ave           8 max           8 min
Histogram: 1 0 0 0 0 0 0 0 0 0
Nghost:        0.00000 ave           0 max           0 min
Histogram: 1 0 0 0 0 0 0 0 0 0
Neighs:        1.00000 ave           1 max           1 min
Histogram: 1 0 0 0 0 0 0 0 0 0

Total # of neighbors = 1
Ave neighs/atom = 0.125
Ave special neighs/atom = 0.0000000
Neighbor list builds = 10
Dangerous builds = 10

# delate all atoms in garbage
delete_atoms group garbage bond yes mol yes
WARNING: Ignoring 'compress yes' for molecular system (src/delete_atoms.cpp:125)
Deleted 0 atoms, new total = 8

# jump to loop lable until step > 0
next step
jump SELF loop
variable step loop ${duration}
variable step loop 50

# fix ID group-ID deposit N type M seed keyword values
#fix depositatoms all deposit 1 3 1 5748 region box near 0.1

# assing all atoms that have a bond to the garbage group
group garbage dynamic all every 1 var hasbond
dynamic group garbage defined

# append new values on dump file
dump_modify 1 append yes

# perform n steps in loop
run 1000
Last active /omp style is bond_style harmonic/omp
WARNING: One or more dynamic groups may not be updated at correct point in timestep (src/fix_group.cpp:172)
Per MPI rank memory allocation (min/avg/max) = 28.33 | 28.33 | 28.33 Mbytes
Step Temp PotEng c_2 
   24000    1.7215804            0            0 
   24100    1.6526939            0            0 
   24200    1.3600764            0            0 
   24300    1.2896026            0            0 
   24400    1.5073555            0            0 
   24500    1.4024329            0            0 
   24600    1.0815956            0            0 
   24700     1.220852            0            0 
   24800    1.3644767            0            0 
   24900     1.194199            0            0 
   25000    1.0276626            0            0 
Loop time of 0.145206 on 16 procs for 1000 steps with 8 atoms

Performance: 5950147.311 tau/day, 6886.745 timesteps/s
380.5% CPU use with 1 MPI tasks x 16 OpenMP threads

MPI task timing breakdown:
Section |  min time  |  avg time  |  max time  |%varavg| %total
---------------------------------------------------------------
Pair    | 0.00011465 | 0.00011465 | 0.00011465 |   0.0 |  0.08
Bond    | 0.048966   | 0.048966   | 0.048966   |   0.0 | 33.72
Neigh   | 0.00034017 | 0.00034017 | 0.00034017 |   0.0 |  0.23
Comm    | 0.00017807 | 0.00017807 | 0.00017807 |   0.0 |  0.12
Output  | 0.0027615  | 0.0027615  | 0.0027615  |   0.0 |  1.90
Modify  | 0.092211   | 0.092211   | 0.092211   |   0.0 | 63.50
Other   |            | 0.0006349  |            |       |  0.44

Nlocal:        8.00000 ave           8 max           8 min
Histogram: 1 0 0 0 0 0 0 0 0 0
Nghost:        0.00000 ave           0 max           0 min
Histogram: 1 0 0 0 0 0 0 0 0 0
Neighs:        1.00000 ave           1 max           1 min
Histogram: 1 0 0 0 0 0 0 0 0 0

Total # of neighbors = 1
Ave neighs/atom = 0.125
Ave special neighs/atom = 0.0000000
Neighbor list builds = 10
Dangerous builds = 10

# delate all atoms in garbage
delete_atoms group garbage bond yes mol yes
WARNING: Ignoring 'compress yes' for molecular system (src/delete_atoms.cpp:125)
Deleted 0 atoms, new total = 8

# jump to loop lable until step > 0
next step
jump SELF loop
variable step loop ${duration}
variable step loop 50

# fix ID group-ID deposit N type M seed keyword values
#fix depositatoms all deposit 1 3 1 5748 region box near 0.1

# assing all atoms that have a bond to the garbage group
group garbage dynamic all every 1 var hasbond
dynamic group garbage defined

# append new values on dump file
dump_modify 1 append yes

# perform n steps in loop
run 1000
Last active /omp style is bond_style harmonic/omp
WARNING: One or more dynamic groups may not be updated at correct point in timestep (src/fix_group.cpp:172)
Per MPI rank memory allocation (min/avg/max) = 28.33 | 28.33 | 28.33 Mbytes
Step Temp PotEng c_2 
   25000    1.0276626            0            0 
   25100    1.1283029            0            0 
   25200    1.4376523            0            0 
   25300    1.3302342            0            0 
   25400    1.3690839            0            0 
   25500    1.5183489            0            0 
   25600    1.5655504            0            0 
   25700    1.4768195            0            0 
   25800    1.4841319            0            0 
   25900    1.9179395            0            0 
   26000    1.9632781            0            0 
Loop time of 0.146006 on 16 procs for 1000 steps with 8 atoms

Performance: 5917576.745 tau/day, 6849.047 timesteps/s
386.5% CPU use with 1 MPI tasks x 16 OpenMP threads

MPI task timing breakdown:
Section |  min time  |  avg time  |  max time  |%varavg| %total
---------------------------------------------------------------
Pair    | 0.00012522 | 0.00012522 | 0.00012522 |   0.0 |  0.09
Bond    | 0.047131   | 0.047131   | 0.047131   |   0.0 | 32.28
Neigh   | 0.00031198 | 0.00031198 | 0.00031198 |   0.0 |  0.21
Comm    | 0.00017425 | 0.00017425 | 0.00017425 |   0.0 |  0.12
Output  | 0.0028752  | 0.0028752  | 0.0028752  |   0.0 |  1.97
Modify  | 0.094905   | 0.094905   | 0.094905   |   0.0 | 65.00
Other   |            | 0.0004832  |            |       |  0.33

Nlocal:        8.00000 ave           8 max           8 min
Histogram: 1 0 0 0 0 0 0 0 0 0
Nghost:        0.00000 ave           0 max           0 min
Histogram: 1 0 0 0 0 0 0 0 0 0
Neighs:        0.00000 ave           0 max           0 min
Histogram: 1 0 0 0 0 0 0 0 0 0

Total # of neighbors = 0
Ave neighs/atom = 0.0000000
Ave special neighs/atom = 0.0000000
Neighbor list builds = 10
Dangerous builds = 10

# delate all atoms in garbage
delete_atoms group garbage bond yes mol yes
WARNING: Ignoring 'compress yes' for molecular system (src/delete_atoms.cpp:125)
Deleted 0 atoms, new total = 8

# jump to loop lable until step > 0
next step
jump SELF loop
variable step loop ${duration}
variable step loop 50

# fix ID group-ID deposit N type M seed keyword values
#fix depositatoms all deposit 1 3 1 5748 region box near 0.1

# assing all atoms that have a bond to the garbage group
group garbage dynamic all every 1 var hasbond
dynamic group garbage defined

# append new values on dump file
dump_modify 1 append yes

# perform n steps in loop
run 1000
Last active /omp style is bond_style harmonic/omp
WARNING: One or more dynamic groups may not be updated at correct point in timestep (src/fix_group.cpp:172)
Per MPI rank memory allocation (min/avg/max) = 28.33 | 28.33 | 28.33 Mbytes
Step Temp PotEng c_2 
   26000    1.9632781            0            0 
   26100    1.8918351            0            0 
   26200    1.9285231            0            0 
   26300    1.7248162            0            0 
   26400    1.7385532            0            0 
   26500     1.679817            0            0 
   26600    1.4524317            0            0 
   26700    1.6763405            0            0 
   26800    1.5221337            0            0 
   26900    1.6574621            0            0 
   27000    1.7254874            0            0 
Loop time of 0.146557 on 16 procs for 1000 steps with 8 atoms

Performance: 5895301.653 tau/day, 6823.266 timesteps/s
392.8% CPU use with 1 MPI tasks x 16 OpenMP threads

MPI task timing breakdown:
Section |  min time  |  avg time  |  max time  |%varavg| %total
---------------------------------------------------------------
Pair    | 0.00012457 | 0.00012457 | 0.00012457 |   0.0 |  0.08
Bond    | 0.048129   | 0.048129   | 0.048129   |   0.0 | 32.84
Neigh   | 0.00032335 | 0.00032335 | 0.00032335 |   0.0 |  0.22
Comm    | 0.00017825 | 0.00017825 | 0.00017825 |   0.0 |  0.12
Output  | 0.0028408  | 0.0028408  | 0.0028408  |   0.0 |  1.94
Modify  | 0.094471   | 0.094471   | 0.094471   |   0.0 | 64.46
Other   |            | 0.0004906  |            |       |  0.33

Nlocal:        8.00000 ave           8 max           8 min
Histogram: 1 0 0 0 0 0 0 0 0 0
Nghost:        0.00000 ave           0 max           0 min
Histogram: 1 0 0 0 0 0 0 0 0 0
Neighs:        0.00000 ave           0 max           0 min
Histogram: 1 0 0 0 0 0 0 0 0 0

Total # of neighbors = 0
Ave neighs/atom = 0.0000000
Ave special neighs/atom = 0.0000000
Neighbor list builds = 10
Dangerous builds = 10

# delate all atoms in garbage
delete_atoms group garbage bond yes mol yes
WARNING: Ignoring 'compress yes' for molecular system (src/delete_atoms.cpp:125)
Deleted 0 atoms, new total = 8

# jump to loop lable until step > 0
next step
jump SELF loop
variable step loop ${duration}
variable step loop 50

# fix ID group-ID deposit N type M seed keyword values
#fix depositatoms all deposit 1 3 1 5748 region box near 0.1

# assing all atoms that have a bond to the garbage group
group garbage dynamic all every 1 var hasbond
dynamic group garbage defined

# append new values on dump file
dump_modify 1 append yes

# perform n steps in loop
run 1000
Last active /omp style is bond_style harmonic/omp
WARNING: One or more dynamic groups may not be updated at correct point in timestep (src/fix_group.cpp:172)
Per MPI rank memory allocation (min/avg/max) = 28.33 | 28.33 | 28.33 Mbytes
Step Temp PotEng c_2 
   27000    1.7254874            0            0 
   27100    1.3831891            0            0 
   27200    1.0502971            0            0 
   27300   0.94775355            0            0 
   27400   0.88988139            0            0 
   27500    1.1269309            0            0 
   27600   0.89466064            0            0 
   27700   0.91905335            0            0 
   27800   0.76081554            0            0 
   27900   0.65457433            0            0 
   28000   0.82683222            0            0 
Loop time of 0.145588 on 16 procs for 1000 steps with 8 atoms

Performance: 5934574.327 tau/day, 6868.720 timesteps/s
376.5% CPU use with 1 MPI tasks x 16 OpenMP threads

MPI task timing breakdown:
Section |  min time  |  avg time  |  max time  |%varavg| %total
---------------------------------------------------------------
Pair    | 0.00011707 | 0.00011707 | 0.00011707 |   0.0 |  0.08
Bond    | 0.048283   | 0.048283   | 0.048283   |   0.0 | 33.16
Neigh   | 0.00034688 | 0.00034688 | 0.00034688 |   0.0 |  0.24
Comm    | 0.00017703 | 0.00017703 | 0.00017703 |   0.0 |  0.12
Output  | 0.0030341  | 0.0030341  | 0.0030341  |   0.0 |  2.08
Modify  | 0.093119   | 0.093119   | 0.093119   |   0.0 | 63.96
Other   |            | 0.0005107  |            |       |  0.35

Nlocal:        8.00000 ave           8 max           8 min
Histogram: 1 0 0 0 0 0 0 0 0 0
Nghost:        0.00000 ave           0 max           0 min
Histogram: 1 0 0 0 0 0 0 0 0 0
Neighs:        0.00000 ave           0 max           0 min
Histogram: 1 0 0 0 0 0 0 0 0 0

Total # of neighbors = 0
Ave neighs/atom = 0.0000000
Ave special neighs/atom = 0.0000000
Neighbor list builds = 10
Dangerous builds = 10

# delate all atoms in garbage
delete_atoms group garbage bond yes mol yes
WARNING: Ignoring 'compress yes' for molecular system (src/delete_atoms.cpp:125)
Deleted 0 atoms, new total = 8

# jump to loop lable until step > 0
next step
jump SELF loop
variable step loop ${duration}
variable step loop 50

# fix ID group-ID deposit N type M seed keyword values
#fix depositatoms all deposit 1 3 1 5748 region box near 0.1

# assing all atoms that have a bond to the garbage group
group garbage dynamic all every 1 var hasbond
dynamic group garbage defined

# append new values on dump file
dump_modify 1 append yes

# perform n steps in loop
run 1000
Last active /omp style is bond_style harmonic/omp
WARNING: One or more dynamic groups may not be updated at correct point in timestep (src/fix_group.cpp:172)
Per MPI rank memory allocation (min/avg/max) = 28.33 | 28.33 | 28.33 Mbytes
Step Temp PotEng c_2 
   28000   0.82683222            0            0 
   28100   0.63001988            0            0 
   28200   0.77209004            0            0 
   28300   0.71154886            0            0 
   28400   0.55077813            0            0 
   28500   0.65939378            0            0 
   28600   0.90556561            0            0 
   28700    0.7588716            0            0 
   28800   0.70619855   0.32059007         0.25 
   28900   0.74199833   0.17181318         0.25 
   29000   0.85374568  0.035317185         0.25 
[...]
   42800    1.1821035            0            0 
   42900    1.3004984            0            0 
   43000    1.1902778            0            0 
Loop time of 0.144419 on 16 procs for 1000 steps with 6 atoms

Performance: 5982585.276 tau/day, 6924.289 timesteps/s
374.5% CPU use with 1 MPI tasks x 16 OpenMP threads

MPI task timing breakdown:
Section |  min time  |  avg time  |  max time  |%varavg| %total
---------------------------------------------------------------
Pair    | 0.00011896 | 0.00011896 | 0.00011896 |   0.0 |  0.08
Bond    | 0.048251   | 0.048251   | 0.048251   |   0.0 | 33.41
Neigh   | 0.00026983 | 0.00026983 | 0.00026983 |   0.0 |  0.19
Comm    | 0.00016995 | 0.00016995 | 0.00016995 |   0.0 |  0.12
Output  | 0.0025566  | 0.0025566  | 0.0025566  |   0.0 |  1.77
Modify  | 0.092565   | 0.092565   | 0.092565   |   0.0 | 64.09
Other   |            | 0.0004872  |            |       |  0.34

Nlocal:        6.00000 ave           6 max           6 min
Histogram: 1 0 0 0 0 0 0 0 0 0
Nghost:        0.00000 ave           0 max           0 min
Histogram: 1 0 0 0 0 0 0 0 0 0
Neighs:        0.00000 ave           0 max           0 min
Histogram: 1 0 0 0 0 0 0 0 0 0

Total # of neighbors = 0
Ave neighs/atom = 0.0000000
Ave special neighs/atom = 0.0000000
Neighbor list builds = 10
Dangerous builds = 10

# delate all atoms in garbage
delete_atoms group garbage bond yes mol yes
WARNING: Ignoring 'compress yes' for molecular system (src/delete_atoms.cpp:125)
Deleted 0 atoms, new total = 6

# jump to loop lable until step > 0
next step
jump SELF loop
variable step loop ${duration}
variable step loop 50

# fix ID group-ID deposit N type M seed keyword values
#fix depositatoms all deposit 1 3 1 5748 region box near 0.1

# assing all atoms that have a bond to the garbage group
group garbage dynamic all every 1 var hasbond
dynamic group garbage defined

# append new values on dump file
dump_modify 1 append yes

# perform n steps in loop
run 1000
Last active /omp style is bond_style harmonic/omp
WARNING: One or more dynamic groups may not be updated at correct point in timestep (src/fix_group.cpp:172)
Per MPI rank memory allocation (min/avg/max) = 28.33 | 28.33 | 28.33 Mbytes
Step Temp PotEng c_2 
   43000    1.1902778            0            0 
   43100    0.8916854            0            0 
   43200   0.77189217            0            0 
   43300   0.63254214            0            0 
   43400   0.75453893            0            0 
   43500   0.88076869            0            0 
   43600   0.79400049            0            0 
   43700   0.68433448            0            0 
   43800   0.62956657            0            0 
   43900    1.0197338            0            0 
   44000    1.3699651            0            0 
Loop time of 0.14029 on 16 procs for 1000 steps with 6 atoms

Performance: 6158672.772 tau/day, 7128.093 timesteps/s
399.9% CPU use with 1 MPI tasks x 16 OpenMP threads

MPI task timing breakdown:
Section |  min time  |  avg time  |  max time  |%varavg| %total
---------------------------------------------------------------
Pair    | 0.00012004 | 0.00012004 | 0.00012004 |   0.0 |  0.09
Bond    | 0.049546   | 0.049546   | 0.049546   |   0.0 | 35.32
Neigh   | 0.00033022 | 0.00033022 | 0.00033022 |   0.0 |  0.24
Comm    | 0.00019886 | 0.00019886 | 0.00019886 |   0.0 |  0.14
Output  | 0.002561   | 0.002561   | 0.002561   |   0.0 |  1.83
Modify  | 0.087064   | 0.087064   | 0.087064   |   0.0 | 62.06
Other   |            | 0.0004696  |            |       |  0.33

Nlocal:        6.00000 ave           6 max           6 min
Histogram: 1 0 0 0 0 0 0 0 0 0
Nghost:        0.00000 ave           0 max           0 min
Histogram: 1 0 0 0 0 0 0 0 0 0
Neighs:        0.00000 ave           0 max           0 min
Histogram: 1 0 0 0 0 0 0 0 0 0

Total # of neighbors = 0
Ave neighs/atom = 0.0000000
Ave special neighs/atom = 0.0000000
Neighbor list builds = 10
Dangerous builds = 10

# delate all atoms in garbage
delete_atoms group garbage bond yes mol yes
WARNING: Ignoring 'compress yes' for molecular system (src/delete_atoms.cpp:125)
Deleted 0 atoms, new total = 6

# jump to loop lable until step > 0
next step
jump SELF loop
variable step loop ${duration}
variable step loop 50

# fix ID group-ID deposit N type M seed keyword values
#fix depositatoms all deposit 1 3 1 5748 region box near 0.1

# assing all atoms that have a bond to the garbage group
group garbage dynamic all every 1 var hasbond
dynamic group garbage defined

# append new values on dump file
dump_modify 1 append yes

# perform n steps in loop
run 1000
Last active /omp style is bond_style harmonic/omp
WARNING: One or more dynamic groups may not be updated at correct point in timestep (src/fix_group.cpp:172)
Per MPI rank memory allocation (min/avg/max) = 28.33 | 28.33 | 28.33 Mbytes
Step Temp PotEng c_2 
   44000    1.3699651            0            0 
   44100    1.3790304            0            0 
   44200     1.080521            0            0 
   44300   0.97395471            0            0 
   44400   0.95871915            0            0 
   44500   0.88667856            0            0 
   44600     0.854998            0            0 
   44700     1.133877            0            0 
   44800   0.88470655            0            0 
   44900   0.98028109            0            0 
   45000    1.0735128            0            0 
Loop time of 0.144803 on 16 procs for 1000 steps with 6 atoms

Performance: 5966734.296 tau/day, 6905.942 timesteps/s
391.1% CPU use with 1 MPI tasks x 16 OpenMP threads

MPI task timing breakdown:
Section |  min time  |  avg time  |  max time  |%varavg| %total
---------------------------------------------------------------
Pair    | 0.00011425 | 0.00011425 | 0.00011425 |   0.0 |  0.08
Bond    | 0.04694    | 0.04694    | 0.04694    |   0.0 | 32.42
Neigh   | 0.00030221 | 0.00030221 | 0.00030221 |   0.0 |  0.21
Comm    | 0.00018316 | 0.00018316 | 0.00018316 |   0.0 |  0.13
Output  | 0.002596   | 0.002596   | 0.002596   |   0.0 |  1.79
Modify  | 0.094145   | 0.094145   | 0.094145   |   0.0 | 65.02
Other   |            | 0.0005218  |            |       |  0.36

Nlocal:        6.00000 ave           6 max           6 min
Histogram: 1 0 0 0 0 0 0 0 0 0
Nghost:        0.00000 ave           0 max           0 min
Histogram: 1 0 0 0 0 0 0 0 0 0
Neighs:        0.00000 ave           0 max           0 min
Histogram: 1 0 0 0 0 0 0 0 0 0

Total # of neighbors = 0
Ave neighs/atom = 0.0000000
Ave special neighs/atom = 0.0000000
Neighbor list builds = 10
Dangerous builds = 10

# delate all atoms in garbage
delete_atoms group garbage bond yes mol yes
WARNING: Ignoring 'compress yes' for molecular system (src/delete_atoms.cpp:125)
Deleted 0 atoms, new total = 6

# jump to loop lable until step > 0
next step
jump SELF loop
variable step loop ${duration}
variable step loop 50

# fix ID group-ID deposit N type M seed keyword values
#fix depositatoms all deposit 1 3 1 5748 region box near 0.1

# assing all atoms that have a bond to the garbage group
group garbage dynamic all every 1 var hasbond
dynamic group garbage defined

# append new values on dump file
dump_modify 1 append yes

# perform n steps in loop
run 1000
Last active /omp style is bond_style harmonic/omp
WARNING: One or more dynamic groups may not be updated at correct point in timestep (src/fix_group.cpp:172)
Per MPI rank memory allocation (min/avg/max) = 28.33 | 28.33 | 28.33 Mbytes
Step Temp PotEng c_2 
   45000    1.0735128            0            0 
   45100    1.1323109            0            0 
   45200    1.2037586            0            0 
   45300   0.63946457            0            0 
   45400   0.93867656            0            0 
   45500    1.0851361            0            0 
   45600    1.0058347            0            0 
   45700   0.97698417            0            0 
   45800   0.91829235            0            0 
   45900   0.97078365            0            0 
   46000    1.5206069            0            0 
Loop time of 0.146616 on 16 procs for 1000 steps with 6 atoms

Performance: 5892953.557 tau/day, 6820.548 timesteps/s
366.3% CPU use with 1 MPI tasks x 16 OpenMP threads

MPI task timing breakdown:
Section |  min time  |  avg time  |  max time  |%varavg| %total
---------------------------------------------------------------
Pair    | 0.00012279 | 0.00012279 | 0.00012279 |   0.0 |  0.08
Bond    | 0.050242   | 0.050242   | 0.050242   |   0.0 | 34.27
Neigh   | 0.00032234 | 0.00032234 | 0.00032234 |   0.0 |  0.22
Comm    | 0.00017607 | 0.00017607 | 0.00017607 |   0.0 |  0.12
Output  | 0.0028559  | 0.0028559  | 0.0028559  |   0.0 |  1.95
Modify  | 0.091924   | 0.091924   | 0.091924   |   0.0 | 62.70
Other   |            | 0.0009719  |            |       |  0.66

Nlocal:        6.00000 ave           6 max           6 min
Histogram: 1 0 0 0 0 0 0 0 0 0
Nghost:        0.00000 ave           0 max           0 min
Histogram: 1 0 0 0 0 0 0 0 0 0
Neighs:        0.00000 ave           0 max           0 min
Histogram: 1 0 0 0 0 0 0 0 0 0

Total # of neighbors = 0
Ave neighs/atom = 0.0000000
Ave special neighs/atom = 0.0000000
Neighbor list builds = 10
Dangerous builds = 10

# delate all atoms in garbage
delete_atoms group garbage bond yes mol yes
WARNING: Ignoring 'compress yes' for molecular system (src/delete_atoms.cpp:125)
Deleted 0 atoms, new total = 6

# jump to loop lable until step > 0
next step
jump SELF loop
variable step loop ${duration}
variable step loop 50

# fix ID group-ID deposit N type M seed keyword values
#fix depositatoms all deposit 1 3 1 5748 region box near 0.1

# assing all atoms that have a bond to the garbage group
group garbage dynamic all every 1 var hasbond
dynamic group garbage defined

# append new values on dump file
dump_modify 1 append yes

# perform n steps in loop
run 1000
Last active /omp style is bond_style harmonic/omp
WARNING: One or more dynamic groups may not be updated at correct point in timestep (src/fix_group.cpp:172)
Per MPI rank memory allocation (min/avg/max) = 28.33 | 28.33 | 28.33 Mbytes
Step Temp PotEng c_2 
   46000    1.5206069            0            0 
   46100    1.7163618            0            0 
   46200    1.8020616            0            0 
   46300    1.5873665            0            0 
   46400    1.3041062            0            0 
   46500    1.2225404            0            0 
   46600      1.45704            0            0 
   46700    1.2401908            0            0 
   46800    1.3239511            0            0 
   46900    1.1621786            0            0 
   47000    1.8361538            0            0 
Loop time of 0.15199 on 16 procs for 1000 steps with 6 atoms

Performance: 5684591.805 tau/day, 6579.389 timesteps/s
372.4% CPU use with 1 MPI tasks x 16 OpenMP threads

MPI task timing breakdown:
Section |  min time  |  avg time  |  max time  |%varavg| %total
---------------------------------------------------------------
Pair    | 0.00012136 | 0.00012136 | 0.00012136 |   0.0 |  0.08
Bond    | 0.049043   | 0.049043   | 0.049043   |   0.0 | 32.27
Neigh   | 0.00030919 | 0.00030919 | 0.00030919 |   0.0 |  0.20
Comm    | 0.00018052 | 0.00018052 | 0.00018052 |   0.0 |  0.12
Output  | 0.0077081  | 0.0077081  | 0.0077081  |   0.0 |  5.07
Modify  | 0.094049   | 0.094049   | 0.094049   |   0.0 | 61.88
Other   |            | 0.0005782  |            |       |  0.38

Nlocal:        6.00000 ave           6 max           6 min
Histogram: 1 0 0 0 0 0 0 0 0 0
Nghost:        0.00000 ave           0 max           0 min
Histogram: 1 0 0 0 0 0 0 0 0 0
Neighs:        0.00000 ave           0 max           0 min
Histogram: 1 0 0 0 0 0 0 0 0 0

Total # of neighbors = 0
Ave neighs/atom = 0.0000000
Ave special neighs/atom = 0.0000000
Neighbor list builds = 10
Dangerous builds = 10

# delate all atoms in garbage
delete_atoms group garbage bond yes mol yes
WARNING: Ignoring 'compress yes' for molecular system (src/delete_atoms.cpp:125)
Deleted 0 atoms, new total = 6

# jump to loop lable until step > 0
next step
jump SELF loop
variable step loop ${duration}
variable step loop 50

# fix ID group-ID deposit N type M seed keyword values
#fix depositatoms all deposit 1 3 1 5748 region box near 0.1

# assing all atoms that have a bond to the garbage group
group garbage dynamic all every 1 var hasbond
dynamic group garbage defined

# append new values on dump file
dump_modify 1 append yes

# perform n steps in loop
run 1000
Last active /omp style is bond_style harmonic/omp
WARNING: One or more dynamic groups may not be updated at correct point in timestep (src/fix_group.cpp:172)
Per MPI rank memory allocation (min/avg/max) = 28.33 | 28.33 | 28.33 Mbytes
Step Temp PotEng c_2 
   47000    1.8361538            0            0 
   47100    1.4082734            0            0 
   47200    1.1986487            0            0 
   47300    1.2654314            0            0 
   47400    1.2459478            0            0 
   47500    1.0547652            0            0 
   47600     1.132031            0            0 
   47700    1.1140491            0            0 
   47800    1.3858111            0            0 
   47900    1.3738737            0            0 
   48000    1.3802635            0            0 
Loop time of 0.151978 on 16 procs for 1000 steps with 6 atoms

Performance: 5685022.512 tau/day, 6579.887 timesteps/s
334.2% CPU use with 1 MPI tasks x 16 OpenMP threads

MPI task timing breakdown:
Section |  min time  |  avg time  |  max time  |%varavg| %total
---------------------------------------------------------------
Pair    | 0.00011829 | 0.00011829 | 0.00011829 |   0.0 |  0.08
Bond    | 0.047026   | 0.047026   | 0.047026   |   0.0 | 30.94
Neigh   | 0.00028059 | 0.00028059 | 0.00028059 |   0.0 |  0.18
Comm    | 0.00017406 | 0.00017406 | 0.00017406 |   0.0 |  0.11
Output  | 0.0026702  | 0.0026702  | 0.0026702  |   0.0 |  1.76
Modify  | 0.1012     | 0.1012     | 0.1012     |   0.0 | 66.59
Other   |            | 0.0005063  |            |       |  0.33

Nlocal:        6.00000 ave           6 max           6 min
Histogram: 1 0 0 0 0 0 0 0 0 0
Nghost:        0.00000 ave           0 max           0 min
Histogram: 1 0 0 0 0 0 0 0 0 0
Neighs:        0.00000 ave           0 max           0 min
Histogram: 1 0 0 0 0 0 0 0 0 0

Total # of neighbors = 0
Ave neighs/atom = 0.0000000
Ave special neighs/atom = 0.0000000
Neighbor list builds = 10
Dangerous builds = 10

# delate all atoms in garbage
delete_atoms group garbage bond yes mol yes
WARNING: Ignoring 'compress yes' for molecular system (src/delete_atoms.cpp:125)
Deleted 0 atoms, new total = 6

# jump to loop lable until step > 0
next step
jump SELF loop
variable step loop ${duration}
variable step loop 50

# fix ID group-ID deposit N type M seed keyword values
#fix depositatoms all deposit 1 3 1 5748 region box near 0.1

# assing all atoms that have a bond to the garbage group
group garbage dynamic all every 1 var hasbond
dynamic group garbage defined

# append new values on dump file
dump_modify 1 append yes

# perform n steps in loop
run 1000
Last active /omp style is bond_style harmonic/omp
WARNING: One or more dynamic groups may not be updated at correct point in timestep (src/fix_group.cpp:172)
Per MPI rank memory allocation (min/avg/max) = 28.33 | 28.33 | 28.33 Mbytes
Step Temp PotEng c_2 
   48000    1.3802635            0            0 
   48100    1.1477182            0            0 
   48200    1.4307938            0            0 
   48300   0.98028179            0            0 
   48400    1.0580805            0            0 
   48500    1.0597333            0            0 
   48600    1.2316345            0            0 
   48700    1.1573854            0            0 
   48800    1.1389751            0            0 
   48900   0.61092824            0            0 
   49000    0.5988671            0            0 
Loop time of 0.145713 on 16 procs for 1000 steps with 6 atoms

Performance: 5929464.735 tau/day, 6862.806 timesteps/s
380.3% CPU use with 1 MPI tasks x 16 OpenMP threads

MPI task timing breakdown:
Section |  min time  |  avg time  |  max time  |%varavg| %total
---------------------------------------------------------------
Pair    | 0.00011497 | 0.00011497 | 0.00011497 |   0.0 |  0.08
Bond    | 0.048659   | 0.048659   | 0.048659   |   0.0 | 33.39
Neigh   | 0.00030657 | 0.00030657 | 0.00030657 |   0.0 |  0.21
Comm    | 0.00018264 | 0.00018264 | 0.00018264 |   0.0 |  0.13
Output  | 0.0027363  | 0.0027363  | 0.0027363  |   0.0 |  1.88
Modify  | 0.093244   | 0.093244   | 0.093244   |   0.0 | 63.99
Other   |            | 0.0004695  |            |       |  0.32

Nlocal:        6.00000 ave           6 max           6 min
Histogram: 1 0 0 0 0 0 0 0 0 0
Nghost:        0.00000 ave           0 max           0 min
Histogram: 1 0 0 0 0 0 0 0 0 0
Neighs:        1.00000 ave           1 max           1 min
Histogram: 1 0 0 0 0 0 0 0 0 0

Total # of neighbors = 1
Ave neighs/atom = 0.16666667
Ave special neighs/atom = 0.0000000
Neighbor list builds = 10
Dangerous builds = 10

# delate all atoms in garbage
delete_atoms group garbage bond yes mol yes
WARNING: Ignoring 'compress yes' for molecular system (src/delete_atoms.cpp:125)
Deleted 0 atoms, new total = 6

# jump to loop lable until step > 0
next step
jump SELF loop
variable step loop ${duration}
variable step loop 50

# fix ID group-ID deposit N type M seed keyword values
#fix depositatoms all deposit 1 3 1 5748 region box near 0.1

# assing all atoms that have a bond to the garbage group
group garbage dynamic all every 1 var hasbond
dynamic group garbage defined

# append new values on dump file
dump_modify 1 append yes

# perform n steps in loop
run 1000
Last active /omp style is bond_style harmonic/omp
WARNING: One or more dynamic groups may not be updated at correct point in timestep (src/fix_group.cpp:172)
Per MPI rank memory allocation (min/avg/max) = 28.33 | 28.33 | 28.33 Mbytes
Step Temp PotEng c_2 
   49000    0.5988671            0            0 
   49100   0.53720065            0            0 
   49200   0.79359607            0            0 
   49300   0.96787285            0            0 
   49400    0.9250425            0            0 
   49500   0.97916025            0            0 
   49600   0.96679273            0            0 
   49700   0.65188808            0            0 
   49800   0.73865353            0            0 
   49900   0.98152365            0            0 
   50000    1.0641253            0            0 
Loop time of 0.147767 on 16 procs for 1000 steps with 6 atoms

Performance: 5847033.088 tau/day, 6767.399 timesteps/s
366.4% CPU use with 1 MPI tasks x 16 OpenMP threads

MPI task timing breakdown:
Section |  min time  |  avg time  |  max time  |%varavg| %total
---------------------------------------------------------------
Pair    | 0.00011988 | 0.00011988 | 0.00011988 |   0.0 |  0.08
Bond    | 0.049113   | 0.049113   | 0.049113   |   0.0 | 33.24
Neigh   | 0.00030727 | 0.00030727 | 0.00030727 |   0.0 |  0.21
Comm    | 0.00019008 | 0.00019008 | 0.00019008 |   0.0 |  0.13
Output  | 0.0026764  | 0.0026764  | 0.0026764  |   0.0 |  1.81
Modify  | 0.094859   | 0.094859   | 0.094859   |   0.0 | 64.20
Other   |            | 0.0005011  |            |       |  0.34

Nlocal:        6.00000 ave           6 max           6 min
Histogram: 1 0 0 0 0 0 0 0 0 0
Nghost:        0.00000 ave           0 max           0 min
Histogram: 1 0 0 0 0 0 0 0 0 0
Neighs:        0.00000 ave           0 max           0 min
Histogram: 1 0 0 0 0 0 0 0 0 0

Total # of neighbors = 0
Ave neighs/atom = 0.0000000
Ave special neighs/atom = 0.0000000
Neighbor list builds = 10
Dangerous builds = 10

# delate all atoms in garbage
delete_atoms group garbage bond yes mol yes
WARNING: Ignoring 'compress yes' for molecular system (src/delete_atoms.cpp:125)
Deleted 0 atoms, new total = 6

# jump to loop lable until step > 0
next step
jump SELF loop

# end of loop
label break

print "ALL DONE"
ALL DONE




Total wall time: 0:00:07
