ITEM: TIMESTEP
0
ITEM: NUMBER OF ATOMS
15
ITEM: BOX BOUNDS ff ff ff
0.0000000000000000e+00 3.1305960336348480e+01
0.0000000000000000e+00 3.1305960336348480e+01
0.0000000000000000e+00 3.1305960336348480e+01
ITEM: ATOMS id x y z type
14 15.1587 3.75525 1.67192 3
15 18.4836 5.11869 1.0943 3
6 9.25666 17.3266 0.880178 2
9 3.72139 27.3274 2.2182 2
8 5.6813 2.44971 5.0164 2
4 23.5901 19.5936 2.76448 1
13 25.4867 26.1299 4.73582 3
3 17.1819 10.0755 5.29699 1
2 15.2549 23.8407 5.58904 1
11 6.44917 9.88203 9.09652 3
10 27.166 12.8401 12.0038 2
7 16.7408 15.5785 15.8647 2
5 4.54242 20.5616 22.9134 1
1 12.0642 24.7713 23.9698 1
12 18.2267 7.31628 26.1404 3
ITEM: TIMESTEP
10
ITEM: NUMBER OF ATOMS
15
ITEM: BOX BOUNDS ff ff ff
0.0000000000000000e+00 3.1305960336348480e+01
0.0000000000000000e+00 3.1305960336348480e+01
0.0000000000000000e+00 3.1305960336348480e+01
ITEM: ATOMS id x y z type
14 15.4494 3.92762 1.70008 3
15 18.566 5.31865 1.01783 3
6 9.20817 17.2817 0.774387 2
9 3.71843 27.3962 2.36721 2
8 5.70112 2.42099 4.84476 2
4 23.5276 19.5131 2.63969 1
13 25.3852 26.036 4.51557 3
3 17.3316 10.1169 5.71945 1
2 15.4215 23.4605 5.603 1
11 6.47863 9.95281 9.16408 3
10 27.0321 12.8238 12.0641 2
7 16.5027 15.4389 15.6529 2
5 4.2379 20.6162 23.2831 1
1 12.3249 24.9739 23.9564 1
12 18.1282 7.30548 25.9528 3
ITEM: TIMESTEP
20
ITEM: NUMBER OF ATOMS
15
ITEM: BOX BOUNDS ff ff ff
0.0000000000000000e+00 3.1305960336348480e+01
0.0000000000000000e+00 3.1305960336348480e+01
0.0000000000000000e+00 3.1305960336348480e+01
ITEM: ATOMS id x y z type
14 15.7452 4.09471 1.72384 3
15 18.6477 5.53684 0.947013 3
6 9.15711 17.2309 0.657533 2
9 3.71317 27.4651 2.51708 2
8 5.7245 2.39764 4.67884 2
4 23.4648 19.4253 2.5039 1
13 25.2932 25.939 4.28822 3
3 17.489 10.149 6.14233 1
2 15.5834 23.0799 5.60357 1
11 6.50849 10.0226 9.23291 3
10 26.8985 12.8029 12.1146 2
7 16.2681 15.3032 15.4469 2
5 3.92988 20.6779 23.644 1
1 12.5785 25.1751 23.9429 1
12 18.0267 7.30336 25.768 3
ITEM: TIMESTEP
30
ITEM: NUMBER OF ATOMS
15
ITEM: BOX BOUNDS ff ff ff
0.0000000000000000e+00 3.1305960336348480e+01
0.0000000000000000e+00 3.1305960336348480e+01
0.0000000000000000e+00 3.1305960336348480e+01
ITEM: ATOMS id x y z type
14 16.0356 4.25366 1.74256 3
15 18.7218 5.76361 0.875404 3
6 9.10613 17.1891 0.539545 2
9 3.71253 27.5462 2.68628 2
8 5.73929 2.36835 4.51892 2
4 23.393 19.3353 2.36381 1
13 25.1975 25.8336 4.05903 3
3 17.6478 10.1714 6.5473 1
2 15.7384 22.7062 5.60084 1
11 6.53352 10.0894 9.30177 3
10 26.7642 12.7671 12.1734 2
7 16.0369 15.1818 15.2433 2
5 3.63169 20.7341 24.0101 1
1 12.8212 25.3714 23.9341 1
12 17.9217 7.30768 25.585 3
ITEM: TIMESTEP
40
ITEM: NUMBER OF ATOMS
15
ITEM: BOX BOUNDS ff ff ff
0.0000000000000000e+00 3.1305960336348480e+01
0.0000000000000000e+00 3.1305960336348480e+01
0.0000000000000000e+00 3.1305960336348480e+01
ITEM: ATOMS id x y z type
14 16.3183 4.41524 1.75055 3
15 18.7986 5.9822 0.807506 3
6 9.04954 17.1601 0.426306 2
9 3.72196 27.6375 2.85398 2
8 5.7574 2.34076 4.35381 2
4 23.3237 19.2403 2.23061 1
13 25.0989 25.7406 3.82244 3
3 17.8072 10.1949 6.94913 1
2 15.8878 22.3355 5.60319 1
11 6.55131 10.1599 9.37785 3
10 26.6384 12.7314 12.2283 2
7 15.806 15.0667 15.0396 2
5 3.34861 20.7959 24.3797 1
1 13.0548 25.5686 23.9114 1
12 17.8223 7.32438 25.4014 3
ITEM: TIMESTEP
50
ITEM: NUMBER OF ATOMS
15
ITEM: BOX BOUNDS ff ff ff
0.0000000000000000e+00 3.1305960336348480e+01
0.0000000000000000e+00 3.1305960336348480e+01
0.0000000000000000e+00 3.1305960336348480e+01
ITEM: ATOMS id x y z type
14 16.6052 4.58309 1.74787 3
15 18.8655 6.20349 0.747398 3
6 8.99528 17.1445 0.319778 2
9 3.73805 27.7334 3.01531 2
8 5.77992 2.32139 4.18513 2
4 23.2598 19.1413 2.09825 1
13 24.9998 25.6542 3.58239 3
3 17.9601 10.2093 7.35712 1
2 16.0478 21.9577 5.59932 1
11 6.57376 10.2356 9.45563 3
10 26.5145 12.7061 12.2787 2
7 15.5708 14.9512 14.8395 2
5 3.06746 20.8639 24.7414 1
1 13.2792 25.7708 23.886 1
12 17.7304 7.33879 25.221 3
ITEM: TIMESTEP
60
ITEM: NUMBER OF ATOMS
15
ITEM: BOX BOUNDS ff ff ff
0.0000000000000000e+00 3.1305960336348480e+01
0.0000000000000000e+00 3.1305960336348480e+01
0.0000000000000000e+00 3.1305960336348480e+01
ITEM: ATOMS id x y z type
14 16.882 4.75247 1.7511 3
15 18.9251 6.42842 0.683982 3
6 8.94424 17.1344 0.220107 2
9 3.75649 27.8336 3.17826 2
8 5.7971 2.31076 4.02349 2
4 23.1962 19.0387 1.97367 1
13 24.901 25.5795 3.34136 3
3 18.1134 10.2114 7.76552 1
2 16.2056 21.5753 5.5955 1
11 6.59517 10.3046 9.5326 3
10 26.3802 12.6823 12.3356 2
7 15.3397 14.8558 14.6358 2
5 2.77942 20.9279 25.1027 1
1 13.4982 25.9699 23.8609 1
12 17.6444 7.36054 25.052 3
ITEM: TIMESTEP
70
ITEM: NUMBER OF ATOMS
15
ITEM: BOX BOUNDS ff ff ff
0.0000000000000000e+00 3.1305960336348480e+01
0.0000000000000000e+00 3.1305960336348480e+01
0.0000000000000000e+00 3.1305960336348480e+01
ITEM: ATOMS id x y z type
14 17.1563 4.92074 1.75662 3
15 18.991 6.6508 0.614939 3
6 8.90171 17.1202 0.132925 2
9 3.78241 27.9346 3.33684 2
8 5.81585 2.31336 3.85967 2
4 23.1403 18.9401 1.84834 1
13 24.7983 25.5111 3.10751 3
3 18.271 10.2175 8.18426 1
2 16.3629 21.1961 5.58878 1
11 6.62336 10.365 9.60453 3
10 26.2404 12.6671 12.3905 2
7 15.1151 14.7702 14.4377 2
5 2.49106 20.9922 25.4662 1
1 13.7225 26.1755 23.8415 1
12 17.568 7.37855 24.8807 3
ITEM: TIMESTEP
80
ITEM: NUMBER OF ATOMS
15
ITEM: BOX BOUNDS ff ff ff
0.0000000000000000e+00 3.1305960336348480e+01
0.0000000000000000e+00 3.1305960336348480e+01
0.0000000000000000e+00 3.1305960336348480e+01
ITEM: ATOMS id x y z type
14 17.4217 5.08474 1.75398 3
15 19.0504 6.86523 0.547726 3
6 8.85913 17.0932 0.0427571 2
9 3.80089 28.0329 3.48858 2
8 5.83907 2.32359 3.69107 2
4 23.0878 18.8397 1.72092 1
13 24.6977 25.4445 2.88379 3
3 18.4218 10.2219 8.60133 1
2 16.529 20.8183 5.57975 1
11 6.64237 10.4203 9.68054 3
10 26.0988 12.6533 12.4483 2
7 14.8895 14.6816 14.2294 2
5 2.21388 21.0561 25.8222 1
1 13.9508 26.3811 23.8258 1
12 17.4816 7.39444 24.7107 3
ITEM: TIMESTEP
90
ITEM: NUMBER OF ATOMS
15
ITEM: BOX BOUNDS ff ff ff
0.0000000000000000e+00 3.1305960336348480e+01
0.0000000000000000e+00 3.1305960336348480e+01
0.0000000000000000e+00 3.1305960336348480e+01
ITEM: ATOMS id x y z type
14 17.6789 5.24652 1.75211 3
15 19.1174 7.07965 0.476196 3
6 8.81587 17.0617 0.0490322 2
9 3.81186 28.122 3.63569 2
8 5.86082 2.33368 3.51381 2
4 23.0416 18.7359 1.60326 1
13 24.5942 25.3845 2.66689 3
3 18.577 10.2224 9.02041 1
2 16.6968 20.4469 5.5711 1
11 6.65197 10.4784 9.76248 3
10 25.9575 12.6388 12.5127 2
7 14.6597 14.595 14.022 2
5 1.93961 21.1239 26.1644 1
1 14.185 26.5863 23.8053 1
12 17.3889 7.40203 24.5445 3
ITEM: TIMESTEP
100
ITEM: NUMBER OF ATOMS
15
ITEM: BOX BOUNDS ff ff ff
0.0000000000000000e+00 3.1305960336348480e+01
0.0000000000000000e+00 3.1305960336348480e+01
0.0000000000000000e+00 3.1305960336348480e+01
ITEM: ATOMS id x y z type
14 17.9396 5.40093 1.7494 3
15 19.1809 7.30312 0.403222 3
6 8.77829 17.0308 0.133244 2
9 3.82346 28.1989 3.78531 2
8 5.88633 2.35079 3.3292 2
4 22.9997 18.6374 1.48933 1
13 24.4891 25.3271 2.45147 3
3 18.7358 10.2189 9.43394 1
2 16.8682 20.065 5.57368 1
11 6.66025 10.5342 9.84856 3
10 25.8085 12.6247 12.5801 2
7 14.4318 14.5032 13.8262 2
5 1.66366 21.1891 26.5057 1
1 14.4257 26.7948 23.7842 1
12 17.2855 7.41978 24.374 3
ITEM: TIMESTEP
110
ITEM: NUMBER OF ATOMS
15
ITEM: BOX BOUNDS ff ff ff
0.0000000000000000e+00 3.1305960336348480e+01
0.0000000000000000e+00 3.1305960336348480e+01
0.0000000000000000e+00 3.1305960336348480e+01
ITEM: ATOMS id x y z type
14 18.204 5.55341 1.75437 3
15 19.2495 7.52641 0.334651 3
6 8.74867 17.0069 0.221995 2
4 22.9674 18.5481 1.37304 1
13 24.3844 25.2654 2.24877 3
8 5.91671 2.3777 3.13891 2
9 3.82968 28.2781 3.93197 2
2 17.0402 19.6789 5.57326 1
3 18.895 10.2202 9.8416 1
11 6.6737 10.6033 9.93022 3
10 25.6604 12.6094 12.6564 2
7 14.196 14.4136 13.6274 2
12 17.181 7.44325 24.2161 3
1 14.6646 27.0072 23.7599 1
5 1.39809 21.2578 26.8415 1
ITEM: TIMESTEP
120
ITEM: NUMBER OF ATOMS
15
ITEM: BOX BOUNDS ff ff ff
0.0000000000000000e+00 3.1305960336348480e+01
0.0000000000000000e+00 3.1305960336348480e+01
0.0000000000000000e+00 3.1305960336348480e+01
ITEM: ATOMS id x y z type
14 18.4567 5.71282 1.76209 3
15 19.3105 7.74574 0.262089 3
6 8.71004 16.9887 0.303439 2
4 22.9517 18.4662 1.25679 1
13 24.2877 25.2051 2.04599 3
8 5.9465 2.40433 2.93656 2
9 3.83754 28.3682 4.07963 2
2 17.2198 19.2995 5.57934 1
3 19.0493 10.2236 10.2528 1
11 6.68873 10.6822 10.0172 3
10 25.512 12.5965 12.7328 2
7 13.9642 14.3188 13.4312 2
12 17.0714 7.46727 24.0594 3
1 14.9013 27.217 23.7367 1
5 1.12957 21.3251 27.1708 1
ITEM: TIMESTEP
130
ITEM: NUMBER OF ATOMS
15
ITEM: BOX BOUNDS ff ff ff
0.0000000000000000e+00 3.1305960336348480e+01
0.0000000000000000e+00 3.1305960336348480e+01
0.0000000000000000e+00 3.1305960336348480e+01
ITEM: ATOMS id x y z type
14 18.7192 5.875 1.77206 3
15 19.3752 7.96611 0.189946 3
6 8.66407 16.9835 0.373191 2
4 22.9346 18.3959 1.1545 1
13 24.1869 25.1449 1.83196 3
8 5.96842 2.44226 2.72195 2
9 3.85028 28.457 4.22714 2
2 17.4017 18.9113 5.58785 1
3 19.1985 10.2276 10.655 1
11 6.7103 10.7645 10.1021 3
10 25.3646 12.5871 12.8024 2
7 13.74 14.2245 13.2405 2
12 16.972 7.49132 23.8933 3
1 15.1429 27.4346 23.7072 1
5 0.856931 21.3931 27.5077 1
ITEM: TIMESTEP
140
ITEM: NUMBER OF ATOMS
15
ITEM: BOX BOUNDS ff ff ff
0.0000000000000000e+00 3.1305960336348480e+01
0.0000000000000000e+00 3.1305960336348480e+01
0.0000000000000000e+00 3.1305960336348480e+01
ITEM: ATOMS id x y z type
14 18.9794 6.02709 1.78063 3
15 19.4426 8.19744 0.121567 3
6 8.61509 16.9763 0.441263 2
4 22.9174 18.3249 1.05772 1
13 24.0777 25.0765 1.61488 3
8 5.99424 2.47584 2.49473 2
9 3.87516 28.5464 4.36911 2
2 17.5902 18.5259 5.60207 1
3 19.3546 10.2385 11.053 1
11 6.73355 10.8523 10.1913 3
10 25.2179 12.5698 12.8721 2
7 13.522 14.1217 13.0485 2
12 16.8687 7.51767 23.7436 3
1 15.3831 27.652 23.6737 1
5 0.59106 21.4551 27.8449 1
ITEM: TIMESTEP
150
ITEM: NUMBER OF ATOMS
15
ITEM: BOX BOUNDS ff ff ff
0.0000000000000000e+00 3.1305960336348480e+01
0.0000000000000000e+00 3.1305960336348480e+01
0.0000000000000000e+00 3.1305960336348480e+01
ITEM: ATOMS id x y z type
14 19.2379 6.16335 1.78087 3
15 19.5146 8.42746 0.0555256 3
6 8.55851 16.963 0.506856 2
4 22.9003 18.2448 0.961546 1
13 23.968 25.0072 1.39433 3
8 6.02648 2.49893 2.275 2
9 3.89967 28.6356 4.51775 2
2 17.7764 18.1499 5.60423 1
3 19.5113 10.2575 11.4436 1
11 6.75008 10.9348 10.2864 3
10 25.0685 12.5506 12.9567 2
7 13.3073 14.0218 12.8454 2
12 16.7707 7.54428 23.5967 3
1 15.6229 27.8789 23.6418 1
5 0.327865 21.515 28.1933 1
ITEM: TIMESTEP
160
ITEM: NUMBER OF ATOMS
15
ITEM: BOX BOUNDS ff ff ff
0.0000000000000000e+00 3.1305960336348480e+01
0.0000000000000000e+00 3.1305960336348480e+01
0.0000000000000000e+00 3.1305960336348480e+01
ITEM: ATOMS id x y z type
14 19.4966 6.28815 1.78108 3
15 19.589 8.65325 0.00545377 3
6 8.48756 16.9496 0.578482 2
4 22.8783 18.1641 0.862339 1
13 23.8611 24.9437 1.17805 3
8 6.05965 2.51763 2.05132 2
9 3.92337 28.7281 4.66799 2
2 17.9589 17.7768 5.60254 1
3 19.674 10.2804 11.8279 1
11 6.75421 11.0163 10.3804 3
10 24.9287 12.5346 13.0589 2
7 13.0863 13.9244 12.6432 2
12 16.6739 7.56874 23.4516 3
1 15.8622 28.1159 23.6163 1
5 0.0638225 21.5854 28.5439 1
ITEM: TIMESTEP
170
ITEM: NUMBER OF ATOMS
15
ITEM: BOX BOUNDS ff ff ff
0.0000000000000000e+00 3.1305960336348480e+01
0.0000000000000000e+00 3.1305960336348480e+01
0.0000000000000000e+00 3.1305960336348480e+01
ITEM: ATOMS id x y z type
14 19.7487 6.40556 1.7898 3
15 19.6519 8.87829 0.0656524 3
6 8.40886 16.9383 0.657256 2
4 22.8539 18.0832 0.768872 1
13 23.7502 24.8823 0.973419 3
8 6.08288 2.54275 1.82259 2
9 3.94503 28.818 4.81343 2
2 18.1374 17.4014 5.61057 1
3 19.8457 10.3003 12.204 1
11 6.75791 11.0943 10.4779 3
10 24.7902 12.5145 13.1594 2
7 12.8591 13.8241 12.4371 2
12 16.5784 7.60694 23.3117 3
1 16.1101 28.3475 23.6057 1
5 0.204112 21.6527 28.9062 1
ITEM: TIMESTEP
180
ITEM: NUMBER OF ATOMS
15
ITEM: BOX BOUNDS ff ff ff
0.0000000000000000e+00 3.1305960336348480e+01
0.0000000000000000e+00 3.1305960336348480e+01
0.0000000000000000e+00 3.1305960336348480e+01
ITEM: ATOMS id x y z type
14 20.003 6.51301 1.80156 3
15 19.7152 9.09876 0.124343 3
6 8.32123 16.9209 0.742462 2
4 22.8308 18.0144 0.679858 1
13 23.6399 24.8296 0.778496 3
8 6.09945 2.56908 1.59358 2
9 3.96392 28.8995 4.95107 2
2 18.3117 17.0221 5.6226 1
3 20.0168 10.3215 12.5716 1
11 6.75822 11.1774 10.5702 3
10 24.65 12.4953 13.2606 2
7 12.6379 13.7081 12.2388 2
12 16.4781 7.63785 23.1805 3
1 16.3615 28.5715 23.6023 1
5 0.471446 21.7272 29.2746 1
ITEM: TIMESTEP
190
ITEM: NUMBER OF ATOMS
15
ITEM: BOX BOUNDS ff ff ff
0.0000000000000000e+00 3.1305960336348480e+01
0.0000000000000000e+00 3.1305960336348480e+01
0.0000000000000000e+00 3.1305960336348480e+01
ITEM: ATOMS id x y z type
14 20.2534 6.61202 1.8131 3
15 19.7757 9.31303 0.17501 3
6 8.23303 16.9006 0.834176 2
4 22.8175 17.9483 0.588991 1
13 23.5316 24.7842 0.587172 3
8 6.11061 2.59513 1.36766 2
9 3.96924 28.9891 5.07964 2
2 18.4851 16.6372 5.63228 1
3 20.1867 10.3387 12.9391 1
11 6.75295 11.26 10.6578 3
10 24.5041 12.4746 13.3691 2
7 12.4247 13.5845 12.0436 2
12 16.3783 7.66948 23.0415 3
1 16.618 28.7977 23.5927 1
5 0.737555 21.8079 29.6419 1
ITEM: TIMESTEP
200
ITEM: NUMBER OF ATOMS
15
ITEM: BOX BOUNDS ff ff ff
0.0000000000000000e+00 3.1305960336348480e+01
0.0000000000000000e+00 3.1305960336348480e+01
0.0000000000000000e+00 3.1305960336348480e+01
ITEM: ATOMS id x y z type
14 20.4887 6.71797 1.82432 3
15 19.8287 9.5247 0.226901 3
6 8.14465 16.8824 0.919589 2
4 22.8047 17.8816 0.501596 1
13 23.4245 24.7407 0.398224 3
8 6.12661 2.61606 1.14443 2
9 3.97382 29.0876 5.20729 2
2 18.6529 16.2434 5.63535 1
3 20.3583 10.3595 13.3109 1
11 6.74812 11.333 10.747 3
10 24.3641 12.4584 13.4727 2
7 12.2104 13.4657 11.8491 2
12 16.2735 7.71375 22.9047 3
1 16.8694 29.0335 23.584 1
5 1.00357 21.8861 30.0129 1
ITEM: TIMESTEP
210
ITEM: NUMBER OF ATOMS
15
ITEM: BOX BOUNDS ff ff ff
0.0000000000000000e+00 3.1305960336348480e+01
0.0000000000000000e+00 3.1305960336348480e+01
0.0000000000000000e+00 3.1305960336348480e+01
ITEM: ATOMS id x y z type
8 6.1435 2.64222 0.920423 2
14 20.7212 6.83104 1.83701 3
15 19.8778 9.72624 0.282908 3
6 8.04949 16.8566 1.00629 2
4 22.7908 17.8199 0.414937 1
13 23.3233 24.7075 0.214661 3
9 3.97613 29.1934 5.34005 2
2 18.814 15.8538 5.63246 1
11 6.74498 11.4045 10.8389 3
7 12.01 13.3521 11.6583 2
3 20.5319 10.384 13.6897 1
10 24.2318 12.4451 13.5777 2
12 16.1596 7.75661 22.7633 3
1 17.121 29.2707 23.5713 1
5 1.27227 21.9656 30.3778 1
ITEM: TIMESTEP
220
ITEM: NUMBER OF ATOMS
15
ITEM: BOX BOUNDS ff ff ff
0.0000000000000000e+00 3.1305960336348480e+01
0.0000000000000000e+00 3.1305960336348480e+01
0.0000000000000000e+00 3.1305960336348480e+01
ITEM: ATOMS id x y z type
8 6.1539 2.6774 0.694578 2
14 20.9536 6.94523 1.84572 3
15 19.9335 9.92473 0.329855 3
6 7.94741 16.8322 1.08731 2
4 22.7739 17.7496 0.327523 1
13 23.2168 24.6824 0.0325702 3
9 3.98907 29.301 5.47023 2
2 18.9676 15.4573 5.62516 1
11 6.73997 11.4811 10.9357 3
7 11.8187 13.2301 11.4657 2
3 20.7082 10.4075 14.0661 1
10 24.1105 12.4327 13.677 2
12 16.0416 7.79792 22.6219 3
1 17.3839 29.5045 23.5684 1
5 1.53245 22.0466 30.7391 1
ITEM: TIMESTEP
230
ITEM: NUMBER OF ATOMS
15
ITEM: BOX BOUNDS ff ff ff
0.0000000000000000e+00 3.1305960336348480e+01
0.0000000000000000e+00 3.1305960336348480e+01
0.0000000000000000e+00 3.1305960336348480e+01
ITEM: ATOMS id x y z type
8 6.16025 2.70825 0.469035 2
14 21.1858 7.06156 1.85212 3
15 19.9976 10.1178 0.378397 3
6 7.84523 16.7964 1.1676 2
4 22.7597 17.6761 0.235555 1
13 23.1104 24.6595 0.145681 3
9 4.00274 29.3999 5.59059 2
2 19.1117 15.0688 5.61975 1
11 6.73365 11.5624 11.0364 3
7 11.6384 13.1051 11.2805 2
3 20.8858 10.4276 14.4402 1
10 23.9887 12.4182 13.7839 2
12 15.9239 7.8464 22.4867 3
1 17.6437 29.7388 23.5714 1
5 1.78337 22.1305 31.1057 1
ITEM: TIMESTEP
240
ITEM: NUMBER OF ATOMS
15
ITEM: BOX BOUNDS ff ff ff
0.0000000000000000e+00 3.1305960336348480e+01
0.0000000000000000e+00 3.1305960336348480e+01
0.0000000000000000e+00 3.1305960336348480e+01
ITEM: ATOMS id x y z type
8 6.16559 2.73575 0.246434 2
14 21.4171 7.17838 1.85779 3
15 20.0632 10.304 0.436248 3
6 7.73849 16.7589 1.25173 2
4 22.7344 17.6007 0.146911 1
13 22.9972 24.6398 0.325202 3
9 4.01218 29.4846 5.70516 2
2 19.2593 14.6819 5.62266 1
11 6.73655 11.6523 11.1373 3
7 11.4597 12.9824 11.093 2
3 21.0739 10.4549 14.812 1
10 23.8618 12.401 13.8918 2
12 15.8074 7.90677 22.3473 3
1 17.8989 29.9732 23.5824 1
5 2.02532 22.218 31.1401 1
ITEM: TIMESTEP
250
ITEM: NUMBER OF ATOMS
15
ITEM: BOX BOUNDS ff ff ff
0.0000000000000000e+00 3.1305960336348480e+01
0.0000000000000000e+00 3.1305960336348480e+01
0.0000000000000000e+00 3.1305960336348480e+01
ITEM: ATOMS id x y z type
8 6.15726 2.75794 0.042125 2
14 21.6527 7.2916 1.85764 3
15 20.1235 10.4893 0.4871 3
6 7.63025 16.7188 1.34303 2
4 22.7065 17.5194 0.0483132 1
13 22.8923 24.6225 0.500238 3
9 4.02202 29.578 5.82122 2
2 19.4154 14.292 5.62009 1
11 6.73196 11.7464 11.238 3
7 11.2796 12.8575 10.9102 2
3 21.2621 10.4907 15.191 1
10 23.732 12.3855 13.9986 2
12 15.6913 7.96603 22.2041 3
1 18.15 30.2103 23.6047 1
5 2.26581 22.3049 30.7838 1
ITEM: TIMESTEP
260
ITEM: NUMBER OF ATOMS
15
ITEM: BOX BOUNDS ff ff ff
0.0000000000000000e+00 3.1305960336348480e+01
0.0000000000000000e+00 3.1305960336348480e+01
0.0000000000000000e+00 3.1305960336348480e+01
ITEM: ATOMS id x y z type
8 6.13995 2.77373 0.15152 2
14 21.8973 7.39743 1.85569 3
15 20.1738 10.6822 0.535824 3
6 7.51377 16.6812 1.42783 2
4 22.6814 17.4362 0.0636139 1
13 22.79 24.6031 0.680883 3
9 4.03369 29.6734 5.93861 2
2 19.5727 13.9029 5.60388 1
11 6.71878 11.8425 11.3453 3
7 11.0974 12.7345 10.7203 2
3 21.4571 10.5273 15.5854 1
10 23.6082 12.3625 14.1043 2
12 15.5691 8.02036 22.0599 3
1 18.401 30.4501 23.6229 1
5 2.50192 22.3828 30.427 1
ITEM: TIMESTEP
270
ITEM: NUMBER OF ATOMS
15
ITEM: BOX BOUNDS ff ff ff
0.0000000000000000e+00 3.1305960336348480e+01
0.0000000000000000e+00 3.1305960336348480e+01
0.0000000000000000e+00 3.1305960336348480e+01
ITEM: ATOMS id x y z type
8 6.11523 2.79156 0.346614 2
14 22.147 7.49344 1.85479 3
15 20.2085 10.8725 0.589592 3
6 7.38575 16.6431 1.50597 2
4 22.6631 17.346 0.179109 1
13 22.6842 24.5888 0.875345 3
9 4.05367 29.7818 6.06385 2
2 19.7385 13.5143 5.59027 1
11 6.70034 11.933 11.4449 3
7 10.9109 12.6146 10.5184 2
3 21.6521 10.5694 15.9776 1
10 23.4742 12.3418 14.211 2
12 15.4433 8.07182 21.921 3
1 18.6493 30.6997 23.6325 1
5 2.73109 22.4636 30.0718 1
ITEM: TIMESTEP
280
ITEM: NUMBER OF ATOMS
15
ITEM: BOX BOUNDS ff ff ff
0.0000000000000000e+00 3.1305960336348480e+01
0.0000000000000000e+00 3.1305960336348480e+01
0.0000000000000000e+00 3.1305960336348480e+01
ITEM: ATOMS id x y z type
8 6.1005 2.81782 0.549047 2
14 22.3878 7.59952 1.85011 3
15 20.237 11.0584 0.639001 3
6 7.24921 16.6055 1.57959 2
4 22.6532 17.2659 0.29088 1
13 22.5819 24.5726 1.06177 3
9 4.07943 29.8895 6.20216 2
2 19.9016 13.1249 5.57223 1
11 6.66595 12.0204 11.554 3
7 10.7397 12.5115 10.3105 2
3 21.8577 10.6268 16.3611 1
10 23.3295 12.3244 14.316 2
12 15.3159 8.12896 21.7854 3
1 18.9055 30.9467 23.6386 1
5 2.96657 22.5512 29.7302 1
ITEM: TIMESTEP
290
ITEM: NUMBER OF ATOMS
15
ITEM: BOX BOUNDS ff ff ff
0.0000000000000000e+00 3.1305960336348480e+01
0.0000000000000000e+00 3.1305960336348480e+01
0.0000000000000000e+00 3.1305960336348480e+01
ITEM: ATOMS id x y z type
8 6.09332 2.83744 0.744449 2
14 22.6244 7.71309 1.84591 3
15 20.2636 11.2485 0.691609 3
6 7.10756 16.5668 1.6611 2
4 22.6401 17.1908 0.397994 1
13 22.4694 24.5543 1.24526 3
9 4.10828 29.9859 6.34844 2
2 20.0531 12.7373 5.54771 1
11 6.62888 12.0978 11.6723 3
7 10.5731 12.4175 10.0948 2
3 22.0539 10.6884 16.7581 1
10 23.1839 12.2984 14.4128 2
12 15.1793 8.18859 21.6593 3
1 19.1682 31.1961 23.6468 1
5 3.2064 22.6411 29.3946 1
ITEM: TIMESTEP
300
ITEM: NUMBER OF ATOMS
15
ITEM: BOX BOUNDS ff ff ff
0.0000000000000000e+00 3.1305960336348480e+01
0.0000000000000000e+00 3.1305960336348480e+01
0.0000000000000000e+00 3.1305960336348480e+01
ITEM: ATOMS id x y z type
8 6.07732 2.84597 0.93929 2
14 22.8649 7.8334 1.83075 3
15 20.2905 11.4437 0.742072 3
6 6.973 16.5331 1.73776 2
4 22.6274 17.1101 0.505461 1
13 22.3502 24.5326 1.4141 3
9 4.14917 30.0795 6.49611 2
2 20.2108 12.3502 5.52397 1
11 6.58525 12.17 11.7894 3
7 10.3965 12.3278 9.87662 2
3 22.2371 10.7534 17.1584 1
10 23.0338 12.2712 14.4997 2
12 15.0362 8.24297 21.539 3
1 19.4272 31.1712 23.6521 1
5 3.45032 22.7326 29.0575 1
ITEM: TIMESTEP
310
ITEM: NUMBER OF ATOMS
15
ITEM: BOX BOUNDS ff ff ff
0.0000000000000000e+00 3.1305960336348480e+01
0.0000000000000000e+00 3.1305960336348480e+01
0.0000000000000000e+00 3.1305960336348480e+01
ITEM: ATOMS id x y z type
8 6.06692 2.84863 1.13022 2
14 23.1113 7.95973 1.80536 3
15 20.3235 11.644 0.791486 3
6 6.85366 16.5029 1.79888 2
4 22.6147 17.0239 0.606765 1
13 22.2286 24.511 1.57602 3
2 20.3746 11.9646 5.50071 1
9 4.18541 30.1704 6.6361 2
7 10.2236 12.2388 9.66386 2
11 6.53804 12.2378 11.9019 3
10 22.8794 12.2456 14.5831 2
3 22.4203 10.8264 17.566 1
12 14.8867 8.29804 21.4272 3
1 19.6833 30.9258 23.6567 1
5 3.6919 22.8299 28.7166 1
ITEM: TIMESTEP
320
ITEM: NUMBER OF ATOMS
15
ITEM: BOX BOUNDS ff ff ff
0.0000000000000000e+00 3.1305960336348480e+01
0.0000000000000000e+00 3.1305960336348480e+01
0.0000000000000000e+00 3.1305960336348480e+01
ITEM: ATOMS id x y z type
8 6.05236 2.8501 1.32236 2
14 23.3566 8.09063 1.77673 3
15 20.3693 11.838 0.838916 3
6 6.74138 16.4803 1.84685 2
4 22.6021 16.9364 0.694044 1
13 22.1052 24.4867 1.73442 3
2 20.5378 11.5845 5.46449 1
9 4.2168 30.253 6.7702 2
7 10.0448 12.1508 9.46085 2
11 6.48698 12.2996 12.0078 3
10 22.7309 12.2066 14.6764 2
3 22.6094 10.9062 17.9743 1
12 14.7403 8.35122 21.3197 3
1 19.934 30.6797 23.6674 1
5 3.92995 22.9232 28.3747 1
ITEM: TIMESTEP
330
ITEM: NUMBER OF ATOMS
15
ITEM: BOX BOUNDS ff ff ff
0.0000000000000000e+00 3.1305960336348480e+01
0.0000000000000000e+00 3.1305960336348480e+01
0.0000000000000000e+00 3.1305960336348480e+01
ITEM: ATOMS id x y z type
8 6.04336 2.84188 1.5091 2
14 23.6075 8.22123 1.73804 3
15 20.417 12.0258 0.884047 3
6 6.61527 16.4575 1.89703 2
4 22.5903 16.8436 0.791202 1
13 21.9809 24.468 1.89504 3
2 20.6939 11.2071 5.42234 1
9 4.24491 30.3395 6.90009 2
7 9.85773 12.0656 9.26534 2
11 6.4324 12.3558 12.1033 3
10 22.5817 12.1709 14.776 2
3 22.8027 10.9843 18.3856 1
12 14.5985 8.40402 21.2116 3
1 20.1783 30.4316 23.6779 1
5 4.16176 23.0126 28.0427 1
ITEM: TIMESTEP
340
ITEM: NUMBER OF ATOMS
15
ITEM: BOX BOUNDS ff ff ff
0.0000000000000000e+00 3.1305960336348480e+01
0.0000000000000000e+00 3.1305960336348480e+01
0.0000000000000000e+00 3.1305960336348480e+01
ITEM: ATOMS id x y z type
8 6.03481 2.82665 1.68741 2
14 23.8507 8.33966 1.6921 3
15 20.483 12.2082 0.917303 3
6 6.48226 16.4259 1.95234 2
4 22.5799 16.7449 0.900128 1
13 21.8622 24.4481 2.05564 3
2 20.8394 10.8302 5.3785 1
9 4.26719 30.4299 7.04306 2
7 9.67665 11.9805 9.07449 2
11 6.37068 12.4108 12.1929 3
10 22.4379 12.1403 14.8791 2
3 23 11.0626 18.7968 1
12 14.4595 8.46476 21.1183 3
1 20.4327 30.1732 23.6955 1
5 4.38947 23.095 27.7202 1
ITEM: TIMESTEP
350
ITEM: NUMBER OF ATOMS
15
ITEM: BOX BOUNDS ff ff ff
0.0000000000000000e+00 3.1305960336348480e+01
0.0000000000000000e+00 3.1305960336348480e+01
0.0000000000000000e+00 3.1305960336348480e+01
ITEM: ATOMS id x y z type
8 6.02946 2.82338 1.86656 2
14 24.0955 8.46044 1.64952 3
15 20.5608 12.386 0.957693 3
6 6.35396 16.3865 2.00443 2
4 22.5723 16.6423 1.0075 1
13 21.7388 24.4282 2.20846 3
2 20.9726 10.4491 5.32764 1
9 4.28382 30.524 7.19526 2
7 9.50031 11.8913 8.88242 2
11 6.31453 12.4755 12.2826 3
10 22.3021 12.1159 14.9922 2
3 23.1997 11.1503 19.1982 1
12 14.321 8.52909 21.0252 3
1 20.6978 29.908 23.7222 1
5 4.62105 23.1679 27.4075 1
ITEM: TIMESTEP
360
ITEM: NUMBER OF ATOMS
15
ITEM: BOX BOUNDS ff ff ff
0.0000000000000000e+00 3.1305960336348480e+01
0.0000000000000000e+00 3.1305960336348480e+01
0.0000000000000000e+00 3.1305960336348480e+01
ITEM: ATOMS id x y z type
8 6.03783 2.81828 2.0435 2
14 24.3353 8.58804 1.61737 3
15 20.6432 12.561 1.00495 3
6 6.2234 16.3464 2.05145 2
4 22.5731 16.5343 1.11322 1
13 21.6203 24.4096 2.36866 3
2 21.12 10.058 5.27154 1
9 4.29753 30.6087 7.3524 2
7 9.33185 11.7922 8.70317 2
11 6.26115 12.5511 12.3625 3
10 22.1774 12.1014 15.1097 2
3 23.4016 11.2395 19.5891 1
12 14.1817 8.59154 20.9237 3
1 20.9732 29.6441 23.7428 1
5 4.86133 23.2298 27.0997 1
ITEM: TIMESTEP
370
ITEM: NUMBER OF ATOMS
15
ITEM: BOX BOUNDS ff ff ff
0.0000000000000000e+00 3.1305960336348480e+01
0.0000000000000000e+00 3.1305960336348480e+01
0.0000000000000000e+00 3.1305960336348480e+01
ITEM: ATOMS id x y z type
8 6.04817 2.81222 2.21942 2
14 24.5725 8.71722 1.57171 3
15 20.73 12.7349 1.05115 3
6 6.09822 16.3015 2.10482 2
4 22.5723 16.4315 1.22032 1
13 21.5127 24.3848 2.53294 3
2 21.268 9.65951 5.21229 1
9 4.31374 30.6894 7.51065 2
7 9.15771 11.6944 8.52439 2
11 6.21488 12.62 12.4542 3
10 22.0644 12.0936 15.222 2
3 23.5877 11.3363 19.9823 1
12 14.0406 8.64472 20.8168 3
1 21.2574 29.3942 23.7526 1
5 5.0952 23.2983 26.7909 1
ITEM: TIMESTEP
380
ITEM: NUMBER OF ATOMS
15
ITEM: BOX BOUNDS ff ff ff
0.0000000000000000e+00 3.1305960336348480e+01
0.0000000000000000e+00 3.1305960336348480e+01
0.0000000000000000e+00 3.1305960336348480e+01
ITEM: ATOMS id x y z type
8 6.05858 2.81481 2.3923 2
14 24.8123 8.84036 1.5336 3
15 20.8136 12.9036 1.09421 3
6 5.97323 16.2519 2.16985 2
4 22.5757 16.3296 1.32763 1
13 21.4022 24.3531 2.69954 3
2 21.4108 9.25848 5.16817 1
9 4.34327 30.7647 7.66967 2
7 8.98061 11.5862 8.35715 2
11 6.17277 12.6948 12.5564 3
10 21.9622 12.0892 15.321 2
3 23.7684 11.4317 20.3779 1
12 13.8906 8.69555 20.6979 3
1 21.5539 29.156 23.7618 1
5 5.32015 23.3832 26.4916 1
ITEM: TIMESTEP
390
ITEM: NUMBER OF ATOMS
15
ITEM: BOX BOUNDS ff ff ff
0.0000000000000000e+00 3.1305960336348480e+01
0.0000000000000000e+00 3.1305960336348480e+01
0.0000000000000000e+00 3.1305960336348480e+01
ITEM: ATOMS id x y z type
8 6.07023 2.81323 2.56895 2
14 25.0455 8.9653 1.50192 3
15 20.8916 13.084 1.14322 3
6 5.8428 16.2156 2.23582 2
4 22.5735 16.2332 1.43515 1
13 21.2923 24.3232 2.85978 3
2 21.5548 8.8564 5.12486 1
9 4.3802 30.8345 7.83141 2
7 8.80465 11.4753 8.19326 2
11 6.13409 12.7721 12.6533 3
10 21.8607 12.0867 15.4181 2
3 23.9456 11.5275 20.7772 1
12 13.7465 8.75344 20.5755 3
1 21.8646 28.9252 23.7681 1
5 5.54261 23.4643 26.2029 1
ITEM: TIMESTEP
400
ITEM: NUMBER OF ATOMS
15
ITEM: BOX BOUNDS ff ff ff
0.0000000000000000e+00 3.1305960336348480e+01
0.0000000000000000e+00 3.1305960336348480e+01
0.0000000000000000e+00 3.1305960336348480e+01
ITEM: ATOMS id x y z type
8 6.08113 2.81878 2.75853 2
14 25.275 9.0968 1.47803 3
15 20.9748 13.2605 1.18906 3
6 5.70395 16.1875 2.30698 2
4 22.5742 16.1365 1.54859 1
13 21.1821 24.293 3.01691 3
2 21.6899 8.44783 5.07364 1
9 4.41698 30.898 7.99053 2
7 8.63511 11.3623 8.02533 2
11 6.10315 12.8536 12.7472 3
10 21.762 12.0902 15.5198 2
3 24.1146 11.6131 21.1743 1
12 13.6085 8.82081 20.4493 3
1 22.1787 28.6913 23.7689 1
5 5.76993 23.5387 25.9114 1
ITEM: TIMESTEP
410
ITEM: NUMBER OF ATOMS
15
ITEM: BOX BOUNDS ff ff ff
0.0000000000000000e+00 3.1305960336348480e+01
0.0000000000000000e+00 3.1305960336348480e+01
0.0000000000000000e+00 3.1305960336348480e+01
ITEM: ATOMS id x y z type
14 25.5051 9.23098 1.466 3
15 21.074 13.4394 1.233 3
6 5.56924 16.1539 2.38819 2
4 22.5805 16.041 1.67327 1
8 6.09227 2.82615 2.9585 2
2 21.823 8.03309 5.01467 1
13 21.0718 24.2645 3.17663 3
7 8.46059 11.2493 7.85402 2
9 4.46422 30.9563 8.14797 2
11 6.07023 12.9413 12.8382 3
10 21.6695 12.1001 15.6209 2
12 13.4657 8.88721 20.3226 3
3 24.274 11.6828 21.5743 1
5 6.00058 23.6133 25.6153 1
1 22.4951 28.4504 23.7676 1
ITEM: TIMESTEP
420
ITEM: NUMBER OF ATOMS
15
ITEM: BOX BOUNDS ff ff ff
0.0000000000000000e+00 3.1305960336348480e+01
0.0000000000000000e+00 3.1305960336348480e+01
0.0000000000000000e+00 3.1305960336348480e+01
ITEM: ATOMS id x y z type
14 25.735 9.36777 1.45325 3
15 21.1802 13.6121 1.26897 3
6 5.42719 16.109 2.46274 2
4 22.5905 15.9493 1.80508 1
8 6.09839 2.8348 3.15992 2
2 21.9556 7.61333 4.94541 1
13 20.9546 24.237 3.3309 3
7 8.28001 11.1438 7.6922 2
9 4.50393 31.0084 8.29816 2
11 6.04217 13.0231 12.9311 3
10 21.5689 12.1181 15.7207 2
12 13.3257 8.9481 20.1935 3
3 24.4274 11.7515 21.9681 1
5 6.22676 23.6895 25.3144 1
1 22.8225 28.2028 23.7658 1
ITEM: TIMESTEP
430
ITEM: NUMBER OF ATOMS
15
ITEM: BOX BOUNDS ff ff ff
0.0000000000000000e+00 3.1305960336348480e+01
0.0000000000000000e+00 3.1305960336348480e+01
0.0000000000000000e+00 3.1305960336348480e+01
ITEM: ATOMS id x y z type
14 25.9658 9.50682 1.43819 3
15 21.2843 13.7867 1.29836 3
6 5.29397 16.0557 2.54007 2
4 22.6118 15.8622 1.94173 1
8 6.11812 2.84179 3.36564 2
2 22.0926 7.20387 4.87632 1
13 20.8434 24.2051 3.47932 3
7 8.09621 11.0384 7.53212 2
9 4.54113 31.0596 8.45089 2
11 6.01279 13.1077 13.0254 3
10 21.4663 12.1314 15.8213 2
12 13.1889 9.01617 20.0679 3
3 24.5704 11.8241 22.3581 1
5 6.45034 23.7632 25.0181 1
1 23.1535 27.9606 23.7618 1
ITEM: TIMESTEP
440
ITEM: NUMBER OF ATOMS
15
ITEM: BOX BOUNDS ff ff ff
0.0000000000000000e+00 3.1305960336348480e+01
0.0000000000000000e+00 3.1305960336348480e+01
0.0000000000000000e+00 3.1305960336348480e+01
ITEM: ATOMS id x y z type
14 26.2018 9.65094 1.41199 3
15 21.3757 13.9551 1.33383 3
6 5.16931 16.0018 2.63002 2
4 22.6372 15.7697 2.0859 1
8 6.14539 2.84521 3.5724 2
2 22.2254 6.79711 4.81211 1
13 20.7341 24.1789 3.61958 3
7 7.9093 10.9325 7.37089 2
9 4.59713 31.0996 8.60349 2
11 5.98764 13.1923 13.1205 3
10 21.3646 12.1342 15.9189 2
12 13.0569 9.09244 19.941 3
3 24.7046 11.8954 22.7534 1
5 6.66769 23.8398 24.7278 1
1 23.4831 27.7263 23.7565 1
ITEM: TIMESTEP
450
ITEM: NUMBER OF ATOMS
15
ITEM: BOX BOUNDS ff ff ff
0.0000000000000000e+00 3.1305960336348480e+01
0.0000000000000000e+00 3.1305960336348480e+01
0.0000000000000000e+00 3.1305960336348480e+01
ITEM: ATOMS id x y z type
14 26.4362 9.79867 1.38483 3
15 21.4683 14.1258 1.35984 3
6 5.03905 15.9615 2.72503 2
4 22.6571 15.6814 2.2322 1
8 6.17302 2.84796 3.78177 2
2 22.3613 6.39102 4.74988 1