ITEM: TIMESTEP
0
ITEM: NUMBER OF ATOMS
25
ITEM: BOX BOUNDS ff ff ff
0.0000000000000000e+00 3.1305960336348480e+01
0.0000000000000000e+00 3.1305960336348480e+01
0.0000000000000000e+00 3.1305960336348480e+01
ITEM: ATOMS id x y z type
14 15.1587 3.75525 1.67192 3
15 18.4836 5.11869 1.0943 3
19 26.5959 11.489 1.12564 4
6 9.25666 17.3266 0.880178 2
24 6.72726 19.2228 0.579358 5
9 3.72139 27.3274 2.2182 2
8 5.6813 2.44971 5.0164 2
23 2.48545 10.8783 4.17465 5
18 13.9861 18.5041 4.45524 4
4 23.5901 19.5936 2.76448 1
13 25.4867 26.1299 4.73582 3
17 19.7126 30.36 5.11015 4
3 17.1819 10.0755 5.29699 1
2 15.2549 23.8407 5.58904 1
11 6.44917 9.88203 9.09652 3
10 27.166 12.8401 12.0038 2
25 1.11885 20.9818 10.5812 5
22 21.1985 22.0978 15.3858 5
16 3.64167 2.43741 17.3129 4
7 16.7408 15.5785 15.8647 2
5 4.54242 20.5616 22.9134 1
20 9.80124 28.7032 21.4907 4
1 12.0642 24.7713 23.9698 1
21 0.83418 26.2987 25.5292 5
12 18.2267 7.31628 26.1404 3
ITEM: TIMESTEP
10
ITEM: NUMBER OF ATOMS
25
ITEM: BOX BOUNDS ff ff ff
0.0000000000000000e+00 3.1305960336348480e+01
0.0000000000000000e+00 3.1305960336348480e+01
0.0000000000000000e+00 3.1305960336348480e+01
ITEM: ATOMS id x y z type
14 15.4025 3.92849 1.7123 3
15 18.5106 5.30364 1.01265 3
19 26.7146 11.6813 1.18766 4
6 9.198 17.2891 0.743216 2
24 6.98282 19.1482 0.612243 5
9 3.74985 27.4401 2.3294 2
8 5.65105 2.45077 4.88733 2
23 2.26497 10.8429 4.15288 5
18 14.0467 18.3836 4.76287 4
4 23.517 19.4739 2.56372 1
13 25.399 25.9805 4.39951 3
17 19.8206 30.4687 5.20599 4
3 17.3135 10.1117 5.71998 1
2 15.4479 23.4486 5.55143 1
11 6.45826 10.0096 9.18143 3
10 27.0237 12.802 12.012 2
25 1.33282 20.8796 10.7088 5
22 21.1066 22.293 15.258 5
16 3.43424 2.32385 17.2512 4
7 16.5102 15.4608 15.606 2
5 4.28733 20.7113 23.2765 1
20 9.71914 28.5438 21.249 4
1 12.4207 25.0667 23.9033 1
21 0.66275 26.1315 25.7526 5
12 18.1469 7.37697 25.9398 3
ITEM: TIMESTEP
20
ITEM: NUMBER OF ATOMS
25
ITEM: BOX BOUNDS ff ff ff
0.0000000000000000e+00 3.1305960336348480e+01
0.0000000000000000e+00 3.1305960336348480e+01
0.0000000000000000e+00 3.1305960336348480e+01
ITEM: ATOMS id x y z type
14 15.6543 4.09824 1.76275 3
15 18.538 5.48501 0.940936 3
19 26.8273 11.8813 1.25087 4
6 9.13007 17.2575 0.609161 2
24 7.23499 19.073 0.639528 5
9 3.77161 27.5498 2.44212 2
8 5.62551 2.45792 4.76106 2
23 2.04869 10.7995 4.11712 5
18 14.1 18.2553 5.07334 4
4 23.444 19.3571 2.35732 1
13 25.3039 25.8194 4.05162 3
17 19.9228 30.5864 5.30343 4
3 17.4539 10.1382 6.13861 1
2 15.6314 23.0576 5.51386 1
11 6.4623 10.1384 9.2774 3
10 26.8698 12.7598 12.0103 2
25 1.54591 20.7944 10.8338 5
22 21.0158 22.4912 15.1244 5
16 3.23176 2.21599 17.188 4
7 16.2747 15.3383 15.3543 2
5 4.03754 20.8488 23.6306 1
20 9.63749 28.3814 20.9956 4
1 12.7805 25.3626 23.8379 1
21 0.491454 25.9754 25.9809 5
12 18.0624 7.44686 25.7475 3
ITEM: TIMESTEP
30
ITEM: NUMBER OF ATOMS
25
ITEM: BOX BOUNDS ff ff ff
0.0000000000000000e+00 3.1305960336348480e+01
0.0000000000000000e+00 3.1305960336348480e+01
0.0000000000000000e+00 3.1305960336348480e+01
ITEM: ATOMS id x y z type
14 15.9013 4.27055 1.80534 3
15 18.5561 5.65984 0.869196 3
19 26.9314 12.0836 1.31905 4
6 9.06472 17.2385 0.472007 2
24 7.48024 19.0021 0.664541 5
9 3.79995 27.6555 2.55896 2
8 5.59824 2.47272 4.63537 2
23 1.83777 10.7535 4.07918 5
18 14.1449 18.1293 5.38327 4
4 23.3701 19.2436 2.13956 1
13 25.2111 25.6558 3.69745 3
17 20.0188 30.7071 5.40463 4
3 17.6012 10.1758 6.55671 1
2 15.8113 22.6669 5.47553 1
11 6.47434 10.2795 9.36937 3
10 26.7154 12.7214 12.0053 2
25 1.76472 20.7213 10.9572 5
22 20.9216 22.7001 14.9853 5
16 3.03471 2.10082 17.1144 4
7 16.039 15.217 15.1132 2
5 3.79549 20.9911 23.984 1
20 9.55747 28.2213 20.7413 4
1 13.1497 25.6602 23.7827 1
21 0.325155 25.8264 26.2065 5
12 17.9905 7.51986 25.5637 3
ITEM: TIMESTEP
40
ITEM: NUMBER OF ATOMS
25
ITEM: BOX BOUNDS ff ff ff
0.0000000000000000e+00 3.1305960336348480e+01
0.0000000000000000e+00 3.1305960336348480e+01
0.0000000000000000e+00 3.1305960336348480e+01
ITEM: ATOMS id x y z type
14 16.1441 4.44132 1.84388 3
15 18.5719 5.83816 0.788427 3
19 27.0382 12.2823 1.39328 4
6 9.00685 17.2268 0.332801 2
24 7.72904 18.93 0.689956 5
9 3.84167 27.7649 2.68658 2
8 5.56978 2.49381 4.51672 2
23 1.62464 10.7 4.04033 5
18 14.1846 18.0046 5.69694 4
4 23.2892 19.1331 1.92207 1
13 25.1098 25.4895 3.34243 3
17 20.1019 30.8359 5.50489 4
3 17.7457 10.2076 6.97664 1
2 15.9935 22.2699 5.43815 1
11 6.4952 10.4237 9.46801 3
10 26.5469 12.6882 12.005 2
25 1.99133 20.6682 11.0827 5
22 20.8309 22.9152 14.8597 5
16 2.83337 1.98149 17.0303 4
7 15.8016 15.1016 14.8722 2
5 3.54735 21.1351 24.3431 1
20 9.48058 28.0668 20.4847 4
1 13.5162 25.9586 23.7278 1
21 0.161652 25.6798 26.4371 5
12 17.9291 7.59395 25.3874 3
ITEM: TIMESTEP
50
ITEM: NUMBER OF ATOMS
25
ITEM: BOX BOUNDS ff ff ff
0.0000000000000000e+00 3.1305960336348480e+01
0.0000000000000000e+00 3.1305960336348480e+01
0.0000000000000000e+00 3.1305960336348480e+01
ITEM: ATOMS id x y z type
14 16.3847 4.62228 1.87437 3
15 18.5789 6.02185 0.712547 3
19 27.1489 12.4748 1.4755 4
6 8.9517 17.2259 0.192142 2
24 7.97814 18.863 0.705774 5
9 3.88838 27.8761 2.80864 2
8 5.5457 2.50791 4.39713 2
23 1.41495 10.6434 3.99229 5
18 14.224 17.8865 6.0139 4
4 23.2084 19.0189 1.69754 1
13 25.0091 25.3207 2.99536 3
17 20.1872 30.9637 5.60581 4
3 17.8976 10.2413 7.39785 1
2 16.1762 21.8635 5.39861 1
11 6.51676 10.5614 9.57186 3
10 26.37 12.6565 11.9972 2
25 2.21901 20.6162 11.2189 5
22 20.7416 23.1269 14.7295 5
16 2.63463 1.86039 16.9384 4
7 15.559 14.9834 14.6347 2
5 3.30239 21.2697 24.7094 1
20 9.40504 27.9118 20.2175 4
1 13.8787 26.2548 23.681 1
21 0.00558033 25.5339 26.667 5
12 17.8643 7.67608 25.2131 3
ITEM: TIMESTEP
60
ITEM: NUMBER OF ATOMS
25
ITEM: BOX BOUNDS ff ff ff
0.0000000000000000e+00 3.1305960336348480e+01
0.0000000000000000e+00 3.1305960336348480e+01
0.0000000000000000e+00 3.1305960336348480e+01
ITEM: ATOMS id x y z type
14 16.6222 4.8042 1.90254 3
15 18.5852 6.21079 0.634234 3
19 27.2671 12.6674 1.55798 4
6 8.89947 17.2241 0.0532503 2
24 8.22421 18.7879 0.730015 5
9 3.93392 27.9776 2.92667 2
8 5.51473 2.52548 4.27809 2
23 1.2 10.5839 3.93968 5
18 14.2594 17.765 6.33527 4
4 23.1211 18.9034 1.47788 1
13 24.9162 25.1507 2.65395 3
17 20.2729 31.0908 5.71099 4
3 18.0527 10.2856 7.80751 1
2 16.362 21.4485 5.36514 1
11 6.54262 10.6975 9.65982 3
10 26.1824 12.6357 11.9993 2
25 2.45046 20.5651 11.3627 5
22 20.6583 23.3242 14.5875 5
16 2.43855 1.73467 16.8436 4
7 15.3144 14.8696 14.3979 2
5 3.06132 21.3997 25.0866 1
20 9.32997 27.7608 19.9537 4
1 14.2422 26.5445 23.6352 1
21 0.141626 25.3896 26.8892 5
12 17.7836 7.77146 25.0362 3
ITEM: TIMESTEP
70
ITEM: NUMBER OF ATOMS
25
ITEM: BOX BOUNDS ff ff ff
0.0000000000000000e+00 3.1305960336348480e+01
0.0000000000000000e+00 3.1305960336348480e+01
0.0000000000000000e+00 3.1305960336348480e+01
ITEM: ATOMS id x y z type
14 16.8531 4.98589 1.9237 3
15 18.5882 6.40452 0.554054 3
19 27.3984 12.8715 1.63624 4
6 8.84862 17.2198 0.0740443 2
24 8.46136 18.7203 0.76659 5
9 3.98236 28.079 3.04883 2
8 5.48497 2.55354 4.15832 2
23 0.986675 10.5372 3.88573 5
18 14.3071 17.6387 6.66007 4
4 23.039 18.784 1.25734 1
13 24.8364 24.9809 2.31703 3
17 20.357 31.2122 5.81682 4
3 18.1963 10.3401 8.21355 1
2 16.5454 21.0319 5.32811 1
11 6.57143 10.8387 9.73213 3
10 26.0038 12.6201 12.0063 2
25 2.67354 20.5145 11.5068 5
22 20.5846 23.5058 14.4442 5
16 2.23979 1.6202 16.742 4
7 15.0746 14.7648 14.1651 2
5 2.81465 21.5282 25.4702 1
20 9.25604 27.6055 19.6891 4
1 14.6072 26.8313 23.6016 1
21 0.2866 25.2419 27.1104 5
12 17.7077 7.87923 24.8621 3
ITEM: TIMESTEP
80
ITEM: NUMBER OF ATOMS
25
ITEM: BOX BOUNDS ff ff ff
0.0000000000000000e+00 3.1305960336348480e+01
0.0000000000000000e+00 3.1305960336348480e+01
0.0000000000000000e+00 3.1305960336348480e+01
ITEM: ATOMS id x y z type
14 17.0869 5.17801 1.93506 3
15 18.6016 6.60145 0.486621 3
19 27.5349 13.073 1.70413 4
6 8.80359 17.2294 0.198181 2
24 8.69856 18.6642 0.807057 5
9 4.02757 28.1947 3.1733 2
8 5.46439 2.58855 4.0392 2
23 0.764231 10.5004 3.82386 5
18 14.3582 17.5108 6.98649 4
4 22.9591 18.6521 1.03389 1
13 24.7643 24.8156 1.96715 3
17 20.4398 31.2843 5.90509 4
3 18.3377 10.4069 8.6255 1
2 16.7362 20.6201 5.28993 1
11 6.59721 10.9886 9.79451 3
10 25.8187 12.6056 12.0177 2
25 2.8978 20.4645 11.6519 5
22 20.5143 23.6914 14.2955 5
16 2.03499 1.50956 16.6445 4
7 14.8352 14.6592 13.9349 2
5 2.56193 21.6475 25.8466 1
20 9.17863 27.4482 19.4322 4
1 14.9727 27.1074 23.57 1
21 0.428574 25.097 27.3346 5
12 17.6305 7.98838 24.6916 3
ITEM: TIMESTEP
90
ITEM: NUMBER OF ATOMS
25
ITEM: BOX BOUNDS ff ff ff
0.0000000000000000e+00 3.1305960336348480e+01
0.0000000000000000e+00 3.1305960336348480e+01
0.0000000000000000e+00 3.1305960336348480e+01
ITEM: ATOMS id x y z type
14 17.3326 5.36415 1.93106 3
15 18.6349 6.80613 0.428852 3
19 27.6693 13.2682 1.78082 4
6 8.7544 17.2419 0.321235 2
24 8.9357 18.6083 0.840554 5
9 4.06598 28.3075 3.30237 2
8 5.4481 2.6167 3.91375 2
23 0.545982 10.4662 3.75128 5
18 14.4158 17.3923 7.30264 4
4 22.8848 18.5175 0.811703 1
13 24.6918 24.6457 1.62173 3
17 20.5224 31.1709 5.98922 4
3 18.4796 10.4815 9.03911 1
2 16.9292 20.2059 5.25065 1
11 6.61909 11.1473 9.85301 3
10 25.6342 12.5826 12.0265 2
25 3.12654 20.4121 11.7872 5
22 20.4456 23.8752 14.1645 5
16 1.83425 1.39532 16.5585 4
7 14.5938 14.546 13.7146 2
5 2.30719 21.7506 26.2231 1
20 9.09777 27.2956 19.1821 4
1 15.3334 27.3846 23.5302 1
21 0.564193 24.9589 27.5505 5
12 17.5513 8.08701 24.5296 3
ITEM: TIMESTEP
100
ITEM: NUMBER OF ATOMS
25
ITEM: BOX BOUNDS ff ff ff
0.0000000000000000e+00 3.1305960336348480e+01
0.0000000000000000e+00 3.1305960336348480e+01
0.0000000000000000e+00 3.1305960336348480e+01
ITEM: ATOMS id x y z type
14 17.5793 5.54451 1.92203 3
15 18.6713 7.01917 0.372863 3
19 27.7965 13.4664 1.85635 4
6 8.70157 17.2549 0.444709 2
24 9.17396 18.5548 0.881511 5
9 4.10546 28.4161 3.43905 2
8 5.42459 2.63586 3.7942 2
23 0.311836 10.4353 3.68855 5
18 14.478 17.28 7.61249 4
4 22.8082 18.3836 0.597007 1
13 24.6192 24.4799 1.27957 3
17 20.6131 31.0529 6.07609 4
3 18.613 10.5489 9.44608 1
2 17.1157 19.7999 5.21587 1
11 6.63554 11.3131 9.90145 3
10 25.4556 12.5504 12.0475 2
25 3.34969 20.3586 11.9207 5
22 20.3883 24.0584 14.0344 5
16 1.64089 1.27754 16.4674 4
7 14.3516 14.4313 13.505 2
5 2.05353 21.8478 26.6024 1
20 9.00969 27.1492 18.9272 4
1 15.6913 27.6678 23.4921 1
21 0.705221 24.827 27.7734 5
12 17.4647 8.18881 24.3738 3
ITEM: TIMESTEP
110
ITEM: NUMBER OF ATOMS
25
ITEM: BOX BOUNDS ff ff ff
0.0000000000000000e+00 3.1305960336348480e+01
0.0000000000000000e+00 3.1305960336348480e+01
0.0000000000000000e+00 3.1305960336348480e+01
ITEM: ATOMS id x y z type
14 17.8187 5.7188 1.9143 3
15 18.701 7.23985 0.309126 3
19 27.9117 13.6685 1.94483 4
6 8.64451 17.2632 0.566751 2
24 9.40703 18.5036 0.931197 5
4 22.7355 18.2506 0.388356 1
13 24.5544 24.3034 0.936753 3
8 5.39545 2.63999 3.684 2
23 0.0723682 10.4169 3.63678 5
2 17.2947 19.3972 5.19059 1
9 4.14068 28.52 3.5828 2
18 14.5506 17.1546 7.92203 4
17 20.7014 30.9282 6.16271 4
11 6.65244 11.4837 9.94863 3
3 18.7444 10.6147 9.85629 1
10 25.2681 12.5169 12.0669 2
25 3.57132 20.299 12.053 5
7 14.1141 14.3178 13.3003 2
22 20.3333 24.2469 13.8973 5
16 1.46197 1.16283 16.3777 4
20 8.91888 27.0029 18.6558 4
12 17.3704 8.28304 24.2258 3
1 16.0473 27.9368 23.4626 1
5 1.79669 21.9469 26.9771 1
21 0.849299 24.7014 28.0055 5
ITEM: TIMESTEP
120
ITEM: NUMBER OF ATOMS
25
ITEM: BOX BOUNDS ff ff ff
0.0000000000000000e+00 3.1305960336348480e+01
0.0000000000000000e+00 3.1305960336348480e+01
0.0000000000000000e+00 3.1305960336348480e+01
ITEM: ATOMS id x y z type
14 18.0461 5.89053 1.90907 3
15 18.7333 7.45464 0.240906 3
19 28.016 13.8765 2.03247 4
6 8.58753 17.2712 0.692624 2
24 9.6516 18.4568 0.985685 5
4 22.6683 18.1147 0.178006 1
13 24.4831 24.1259 0.60021 3
8 5.37304 2.63983 3.58144 2
23 0.163734 10.4039 3.59041 5
2 17.4645 18.9992 5.16918 1
9 4.17344 28.6168 3.73247 2
18 14.6174 17.0402 8.23415 4
17 20.7948 30.795 6.24359 4
11 6.66561 11.6487 9.98857 3
3 18.8703 10.6728 10.2543 1
10 25.0778 12.4844 12.0921 2
25 3.79147 20.2366 12.1748 5
7 13.8742 14.2004 13.0889 2
22 20.2764 24.4371 13.7559 5
16 1.2903 1.04971 16.2906 4
20 8.82585 26.866 18.3788 4
12 17.2716 8.3774 24.0752 3
1 16.397 28.2135 23.4228 1
5 1.54701 22.0539 27.3568 1
21 0.983334 24.5764 28.2443 5
ITEM: TIMESTEP
130
ITEM: NUMBER OF ATOMS
25
ITEM: BOX BOUNDS ff ff ff
0.0000000000000000e+00 3.1305960336348480e+01
0.0000000000000000e+00 3.1305960336348480e+01
0.0000000000000000e+00 3.1305960336348480e+01
ITEM: ATOMS id x y z type
14 18.2801 6.06467 1.90705 3
15 18.7711 7.67538 0.173222 3
19 28.1072 14.0804 2.11664 4
6 8.52393 17.2854 0.822963 2
24 9.91014 18.4159 1.03704 5
4 22.6007 17.9773 0.0227243 1
13 24.4156 23.9551 0.269594 3
8 5.34573 2.62775 3.47765 2
23 0.399433 10.3947 3.5413 5
2 17.6373 18.5992 5.15021 1
9 4.20728 28.7158 3.88118 2
18 14.6863 16.9276 8.54083 4
17 20.8929 30.6648 6.32433 4
11 6.68001 11.8166 10.041 3
3 18.9904 10.7393 10.6505 1
10 24.8861 12.4625 12.122 2
25 4.01442 20.1646 12.2992 5
7 13.6307 14.0839 12.869 2
22 20.2245 24.6242 13.6157 5
16 1.12972 0.929808 16.2015 4
20 8.72976 26.744 18.0966 4
12 17.1752 8.47083 23.9237 3
1 16.7395 28.4922 23.3779 1
5 1.29105 22.1577 27.7351 1
21 1.11566 24.4471 28.483 5
ITEM: TIMESTEP
140
ITEM: NUMBER OF ATOMS
25
ITEM: BOX BOUNDS ff ff ff
0.0000000000000000e+00 3.1305960336348480e+01
0.0000000000000000e+00 3.1305960336348480e+01
0.0000000000000000e+00 3.1305960336348480e+01
ITEM: ATOMS id x y z type
14 18.5198 6.23665 1.91519 3
15 18.8168 7.89669 0.0962609 3
19 28.2016 14.291 2.20128 4
6 8.46647 17.3073 0.962867 2
24 10.1679 18.3717 1.09361 5
4 22.5218 17.8447 0.214897 1
13 24.3499 23.7819 0.0681707 3
8 5.32076 2.60807 3.37232 2
23 0.638841 10.3985 3.49903 5
2 17.802 18.1952 5.12822 1
9 4.23678 28.806 4.02678 2
18 14.7565 16.8138 8.84128 4
17 20.9852 30.5406 6.41349 4
11 6.69706 11.9747 10.0994 3
3 19.1101 10.8052 11.0507 1
10 24.6983 12.44 12.1421 2
25 4.24169 20.0921 12.4294 5
7 13.3887 13.9633 12.6541 2
22 20.1661 24.8038 13.4771 5
16 0.976953 0.808188 16.1037 4
20 8.63285 26.6315 17.8105 4
12 17.0773 8.56153 23.7777 3
1 17.0808 28.771 23.3263 1
5 1.02825 22.2557 28.1043 1
21 1.24905 24.3159 28.7303 5
ITEM: TIMESTEP
150
ITEM: NUMBER OF ATOMS
25
ITEM: BOX BOUNDS ff ff ff
0.0000000000000000e+00 3.1305960336348480e+01
0.0000000000000000e+00 3.1305960336348480e+01
0.0000000000000000e+00 3.1305960336348480e+01
ITEM: ATOMS id x y z type
14 18.757 6.40349 1.9252 3
15 18.8658 8.11814 0.0251267 3
19 28.3057 14.5076 2.28179 4
6 8.39734 17.3252 1.10474 2
24 10.4238 18.3255 1.15731 5
4 22.4422 17.727 0.406445 1
13 24.2794 23.598 0.39746 3
8 5.29468 2.59293 3.26814 2
23 0.879229 10.4044 3.4654 5
2 17.9566 17.8003 5.09281 1
9 4.26398 28.8913 4.17411 2
18 14.8128 16.7005 9.13745 4
17 21.0745 30.4129 6.50325 4
11 6.71925 12.1258 10.1717 3
3 19.2324 10.8674 11.4447 1
10 24.5135 12.413 12.1715 2
25 4.46689 20.0157 12.557 5
7 13.1534 13.8375 12.4369 2
22 20.1082 24.9911 13.3419 5
16 0.818948 0.684917 16.0089 4
20 8.53827 26.5283 17.5278 4
12 16.9888 8.65407 23.6356 3
1 17.4143 29.0519 23.279 1
5 0.763005 22.3649 28.4715 1
21 1.3749 24.1796 28.9818 5
ITEM: TIMESTEP
160
ITEM: NUMBER OF ATOMS
25
ITEM: BOX BOUNDS ff ff ff
0.0000000000000000e+00 3.1305960336348480e+01
0.0000000000000000e+00 3.1305960336348480e+01
0.0000000000000000e+00 3.1305960336348480e+01
ITEM: ATOMS id x y z type
14 18.9909 6.56423 1.94377 3
15 18.9256 8.33516 0.0569568 3
19 28.4026 14.7202 2.35977 4
6 8.30836 17.3375 1.24182 2
24 10.6938 18.273 1.22182 5
4 22.3613 17.6158 0.598373 1
13 24.2146 23.4161 0.725555 3
8 5.27313 2.58325 3.15803 2
23 1.12436 10.4064 3.43625 5
2 18.0978 17.406 5.0464 1
9 4.29331 28.9772 4.33219 2
18 14.8684 16.5914 9.43246 4
17 21.1591 30.2811 6.59538 4
11 6.7451 12.2804 10.2438 3
3 19.3608 10.9246 11.8323 1
10 24.3309 12.3865 12.2084 2
25 4.69352 19.9353 12.6853 5
7 12.9212 13.7033 12.2097 2
22 20.0371 25.185 13.2005 5
16 0.652392 0.570497 15.9064 4
20 8.43609 26.4215 17.254 4
12 16.9014 8.74134 23.5043 3
1 17.7347 29.343 23.231 1
5 0.491719 22.4811 28.8362 1
21 1.49448 24.0335 29.2307 5
ITEM: TIMESTEP
170
ITEM: NUMBER OF ATOMS
25
ITEM: BOX BOUNDS ff ff ff
0.0000000000000000e+00 3.1305960336348480e+01
0.0000000000000000e+00 3.1305960336348480e+01
0.0000000000000000e+00 3.1305960336348480e+01
ITEM: ATOMS id x y z type
14 19.2169 6.73602 1.96237 3
15 18.9911 8.554 0.142899 3
19 28.4973 14.9283 2.43689 4
6 8.21508 17.355 1.37905 2
24 10.9683 18.2316 1.29186 5
4 22.2812 17.5017 0.782005 1
13 24.151 23.2409 1.04868 3
8 5.24271 2.56587 3.03626 2
23 1.37887 10.4018 3.40275 5
2 18.2478 17.0129 4.99362 1
9 4.33348 29.0803 4.50123 2
18 14.9163 16.4843 9.72742 4
17 21.2465 30.1518 6.69821 4
11 6.76342 12.4344 10.3135 3
3 19.5018 10.9817 12.2222 1
10 24.1561 12.359 12.2447 2
25 4.91477 19.8624 12.8169 5
7 12.6865 13.5677 11.9828 2
22 19.9436 25.3877 13.0578 5
16 0.489431 0.472719 15.8069 4
20 8.3391 26.3181 16.9795 4
12 16.8069 8.82334 23.3857 3
1 18.0464 29.6445 23.1895 1
5 0.218719 22.5888 29.1994 1
21 1.61277 23.8925 29.4709 5
ITEM: TIMESTEP
180
ITEM: NUMBER OF ATOMS
25
ITEM: BOX BOUNDS ff ff ff
0.0000000000000000e+00 3.1305960336348480e+01
0.0000000000000000e+00 3.1305960336348480e+01
0.0000000000000000e+00 3.1305960336348480e+01
ITEM: ATOMS id x y z type
14 19.4318 6.90555 1.97128 3
15 19.066 8.77295 0.221747 3
19 28.5934 15.1298 2.51456 4
6 8.11987 17.3792 1.52069 2
24 11.2346 18.1958 1.36445 5
4 22.1989 17.3838 0.966617 1
13 24.0867 23.0633 1.36753 3
8 5.21385 2.54338 2.90803 2
23 1.64369 10.3903 3.36722 5
2 18.391 16.6246 4.93767 1
9 4.3684 29.186 4.66341 2
18 14.9698 16.3848 10.0101 4
17 21.3177 30.0293 6.80159 4
11 6.77555 12.5736 10.3933 3
3 19.6549 11.0524 12.6076 1
10 23.9718 12.3178 12.2881 2
25 5.13269 19.7824 12.9502 5
7 12.4484 13.4259 11.7666 2
22 19.8453 25.5895 12.9168 5
16 0.328707 0.375844 15.6962 4
20 8.24137 26.2224 16.7071 4
12 16.7098 8.90063 23.2749 3
1 18.3538 29.9645 23.1502 1
5 0.054626 22.6975 29.5598 1
21 1.73483 23.7433 29.7169 5
ITEM: TIMESTEP
190
ITEM: NUMBER OF ATOMS
25
ITEM: BOX BOUNDS ff ff ff
0.0000000000000000e+00 3.1305960336348480e+01
0.0000000000000000e+00 3.1305960336348480e+01
0.0000000000000000e+00 3.1305960336348480e+01
ITEM: ATOMS id x y z type
14 19.6473 7.07845 1.9835 3
15 19.1429 9.00252 0.296758 3
19 28.6979 15.3286 2.59222 4
6 8.02777 17.4122 1.6689 2
24 11.5031 18.1699 1.43585 5
4 22.1061 17.2635 1.15875 1
13 24.0229 22.8948 1.66706 3
8 5.18447 2.51078 2.77639 2
23 1.91863 10.3714 3.33233 5
2 18.5288 16.223 4.8753 1
9 4.40661 29.2848 4.81407 2
18 15.029 16.2899 10.2917 4
17 21.3832 29.8998 6.90912 4
11 6.78898 12.7067 10.4552 3
3 19.8085 11.1269 12.9963 1
10 23.7867 12.2683 12.3267 2
25 5.35703 19.7029 13.0848 5
7 12.2031 13.2915 11.5496 2
22 19.7505 25.7935 12.7649 5
16 0.162845 0.282388 15.5744 4
20 8.14228 26.1277 16.4338 4
12 16.62 8.97679 23.1634 3
1 18.669 30.2899 23.1113 1
5 0.321788 22.8046 29.9175 1
21 1.85627 23.5878 29.9627 5
ITEM: TIMESTEP
200
ITEM: NUMBER OF ATOMS
25
ITEM: BOX BOUNDS ff ff ff
0.0000000000000000e+00 3.1305960336348480e+01
0.0000000000000000e+00 3.1305960336348480e+01
0.0000000000000000e+00 3.1305960336348480e+01
ITEM: ATOMS id x y z type
14 19.8615 7.25233 1.98875 3
15 19.2118 9.22842 0.370516 3
19 28.8109 15.5331 2.66641 4
6 7.93282 17.4442 1.8314 2
24 11.7793 18.141 1.51066 5
4 22.0223 17.145 1.3565 1
13 23.9602 22.731 1.95298 3
8 5.15268 2.46402 2.64096 2
23 2.2005 10.3559 3.29958 5
2 18.6638 15.814 4.81144 1
9 4.43712 29.384 4.9613 2
18 15.0873 16.1994 10.5787 4
17 21.4509 29.7633 7.01701 4
11 6.78946 12.8395 10.5147 3
3 19.958 11.1993 13.3823 1
10 23.6011 12.2083 12.3696 2
25 5.59453 19.6258 13.2079 5
7 11.9544 13.1601 11.3373 2
22 19.6529 25.9972 12.6112 5
16 0.0050158 0.187973 15.4453 4
20 8.04705 26.0249 16.1685 4
12 16.5264 9.05215 23.0493 3
1 18.9936 30.6158 23.0697 1
5 0.572685 22.9141 30.274 1
21 1.96471 23.4245 30.2119 5
ITEM: TIMESTEP
210
ITEM: NUMBER OF ATOMS
25
ITEM: BOX BOUNDS ff ff ff
0.0000000000000000e+00 3.1305960336348480e+01
0.0000000000000000e+00 3.1305960336348480e+01
0.0000000000000000e+00 3.1305960336348480e+01
ITEM: ATOMS id x y z type
14 20.0839 7.42242 1.99239 3
15 19.2825 9.46019 0.44092 3
6 7.82957 17.4754 1.99852 2
24 12.0513 18.11 1.59029 5
4 21.9517 17.0373 1.54818 1
13 23.909 22.5711 2.24282 3
8 5.11491 2.41358 2.50795 2
23 2.49117 10.3351 3.27057 5
19 28.9294 15.7338 2.74211 4
2 18.7869 15.4098 4.75689 1
9 4.46948 29.4847 5.11244 2
17 21.5131 29.6284 7.11673 4
11 6.80587 12.9682 10.5848 3
10 23.4128 12.142 12.4066 2
7 11.7112 13.0293 11.1382 2
18 15.1412 16.114 10.8666 4
22 19.5515 26.1951 12.4512 5
16 0.171315 0.0868461 15.3106 4
3 20.1024 11.2724 13.7671 1
25 5.84325 19.5439 13.3283 5
20 7.95968 25.9232 15.9019 4
12 16.4252 9.12163 22.9338 3
1 19.3192 30.9388 23.0376 1
5 0.82955 23.0161 30.6291 1
21 2.06943 23.2555 30.4701 5
ITEM: TIMESTEP
220
ITEM: NUMBER OF ATOMS
25
ITEM: BOX BOUNDS ff ff ff
0.0000000000000000e+00 3.1305960336348480e+01
0.0000000000000000e+00 3.1305960336348480e+01
0.0000000000000000e+00 3.1305960336348480e+01
ITEM: ATOMS id x y z type
14 20.3035 7.59102 1.99349 3
15 19.3594 9.67921 0.514216 3
6 7.72942 17.5119 2.17015 2
24 12.3266 18.0773 1.6777 5
4 21.892 16.9326 1.73173 1
13 23.8802 22.4125 2.53951 3
8 5.07413 2.37268 2.3786 2
23 2.77532 10.3148 3.24351 5
19 29.05 15.9224 2.819 4
2 18.9155 15.017 4.69443 1
9 4.51079 29.5899 5.27318 2
17 21.5709 29.4835 7.2118 4
11 6.83056 13.0913 10.6555 3
10 23.2395 12.0744 12.443 2
7 11.4701 12.8929 10.9428 2
18 15.2024 16.0339 11.154 4
22 19.4549 26.4031 12.2757 5
16 0.341618 0.0299512 15.1736 4
3 20.2494 11.3509 14.149 1
25 6.09207 19.4588 13.4547 5
20 7.87823 25.826 15.6337 4
12 16.3259 9.19445 22.8151 3
1 19.6389 31.2561 23.0068 1
5 1.08753 23.1183 30.978 1
21 2.17907 23.0794 30.7329 5
ITEM: TIMESTEP
230
ITEM: NUMBER OF ATOMS
25
ITEM: BOX BOUNDS ff ff ff
0.0000000000000000e+00 3.1305960336348480e+01
0.0000000000000000e+00 3.1305960336348480e+01
0.0000000000000000e+00 3.1305960336348480e+01
ITEM: ATOMS id x y z type
14 20.5174 7.75447 1.98138 3
15 19.4321 9.8926 0.595447 3
6 7.6173 17.5384 2.3397 2
24 12.6116 18.0427 1.77227 5
4 21.8303 16.8352 1.92516 1
13 23.8595 22.2646 2.83086 3
8 5.01993 2.32312 2.25389 2
23 3.06399 10.2982 3.21869 5
19 29.1693 16.1068 2.89718 4
2 19.0474 14.6279 4.62729 1
9 4.55504 29.696 5.44055 2
17 21.6332 29.336 7.30715 4
11 6.86443 13.2069 10.7204 3
10 23.0629 12.0082 12.4902 2
7 11.225 12.7506 10.7571 2
18 15.2747 15.9511 11.4431 4
22 19.3528 26.6148 12.1102 5
16 0.518211 0.153406 15.033 4
3 20.4035 11.4285 14.5324 1
25 6.33908 19.3801 13.5912 5
20 7.80079 25.7281 15.3598 4
12 16.2258 9.27242 22.694 3
1 19.9575 31.0347 22.9698 1
5 1.34909 23.23 31.2868 1
21 2.29065 22.9188 30.9979 5
ITEM: TIMESTEP
240
ITEM: NUMBER OF ATOMS
25
ITEM: BOX BOUNDS ff ff ff
0.0000000000000000e+00 3.1305960336348480e+01
0.0000000000000000e+00 3.1305960336348480e+01
0.0000000000000000e+00 3.1305960336348480e+01
ITEM: ATOMS id x y z type
14 20.7306 7.91907 1.96747 3
15 19.5053 10.106 0.67722 3
6 7.50375 17.568 2.50556 2
24 12.8998 17.9986 1.86739 5
4 21.7687 16.7304 2.11749 1
13 23.8328 22.1231 3.11766 3
8 4.95355 2.25895 2.13886 2
23 3.35657 10.283 3.19704 5
19 29.2777 16.3008 2.97531 4
2 19.1842 14.2434 4.56681 1
9 4.59485 29.8027 5.60571 2
17 21.694 29.197 7.40428 4
11 6.89724 13.3137 10.779 3
10 22.8801 11.947 12.5426 2
7 10.9781 12.6024 10.5669 2
18 15.3547 15.87 11.7394 4
22 19.2392 26.8261 11.9433 5
16 0.692672 0.287923 14.9008 4
3 20.5741 11.5137 14.9109 1
25 6.58522 19.3089 13.7328 5
20 7.73216 25.6303 15.0938 4
12 16.1264 9.34957 22.5738 3
1 20.2883 30.7213 22.9277 1
5 1.61526 23.3478 30.9446 1
21 2.40726 22.7647 31.262 5
ITEM: TIMESTEP
250
ITEM: NUMBER OF ATOMS
25
ITEM: BOX BOUNDS ff ff ff
0.0000000000000000e+00 3.1305960336348480e+01
0.0000000000000000e+00 3.1305960336348480e+01
0.0000000000000000e+00 3.1305960336348480e+01
ITEM: ATOMS id x y z type
14 20.9478 8.09279 1.95211 3
15 19.5688 10.3145 0.760912 3
6 7.39893 17.5906 2.66973 2
24 13.1965 17.9601 1.96792 5
4 21.6955 16.6268 2.30161 1
13 23.8008 21.9805 3.41176 3
8 4.89977 2.17927 2.02931 2
23 3.64864 10.2575 3.17256 5
19 29.38 16.4876 3.05355 4
2 19.3171 13.861 4.50886 1
9 4.62679 29.9068 5.77668 2
17 21.7564 29.0582 7.4993 4
11 6.92663 13.4226 10.8324 3
10 22.6954 11.8798 12.5816 2
7 10.7313 12.4388 10.3748 2
18 15.4459 15.8042 12.0321 4
22 19.1241 27.0285 11.7723 5
16 0.872593 0.421916 14.7721 4
3 20.747 11.6056 15.2926 1
25 6.84394 19.2413 13.8804 5
20 7.66761 25.5286 14.8309 4
12 16.0254 9.42909 22.4526 3
1 20.6195 30.4121 22.8805 1
5 1.87923 23.4617 30.6027 1
21 2.53141 22.6113 31.0795 5
ITEM: TIMESTEP
260
ITEM: NUMBER OF ATOMS
25
ITEM: BOX BOUNDS ff ff ff
0.0000000000000000e+00 3.1305960336348480e+01
0.0000000000000000e+00 3.1305960336348480e+01
0.0000000000000000e+00 3.1305960336348480e+01
ITEM: ATOMS id x y z type
14 21.1765 8.25977 1.93418 3
15 19.6289 10.5246 0.846819 3
6 7.28639 17.6155 2.82611 2
24 13.513 17.9216 2.06444 5
4 21.6193 16.531 2.4832 1
13 23.7676 21.8445 3.70863 3
8 4.83897 2.09647 1.91599 2
23 3.93391 10.2213 3.14046 5
19 29.4866 16.6566 3.1348 4
2 19.4564 13.4863 4.45133 1
9 4.64558 30.0102 5.94262 2
17 21.8252 28.9134 7.58562 4
11 6.95457 13.5342 10.8904 3
10 22.5006 11.8204 12.6307 2
7 10.4882 12.2635 10.1806 2
18 15.5423 15.7457 12.329 4
22 19.0204 27.2263 11.6044 5
16 1.04803 0.555221 14.6489 4
3 20.9132 11.71 15.6777 1
25 7.11223 19.1743 14.0354 5
20 7.60057 25.4304 14.5574 4
12 15.923 9.51803 22.3234 3
1 20.9526 30.1043 22.8409 1
5 2.13618 23.5702 30.2603 1
21 2.66019 22.4515 30.8134 5
ITEM: TIMESTEP
270
ITEM: NUMBER OF ATOMS
25
ITEM: BOX BOUNDS ff ff ff
0.0000000000000000e+00 3.1305960336348480e+01
0.0000000000000000e+00 3.1305960336348480e+01
0.0000000000000000e+00 3.1305960336348480e+01
ITEM: ATOMS id x y z type
14 21.4031 8.42198 1.91579 3
15 19.6852 10.7354 0.92526 3
6 7.16858 17.6448 2.99158 2
24 13.841 17.8766 2.16458 5
4 21.5381 16.4412 2.66585 1
13 23.732 21.7149 3.99905 3
8 4.78016 2.02525 1.79838 2
23 4.22292 10.1801 3.11121 5
19 29.6006 16.8157 3.21886 4
2 19.6118 13.1084 4.39276 1
9 4.67102 30.1078 6.106 2
17 21.8996 28.766 7.66685 4
11 6.9848 13.6478 10.9487 3
10 22.2981 11.7711 12.6788 2
7 10.2425 12.0937 9.98543 2
18 15.6386 15.6917 12.6286 4
22 18.9204 27.4177 11.4444 5
16 1.21084 0.69165 14.5305 4
3 21.0902 11.8132 16.0681 1
25 7.39063 19.1055 14.1925 5
20 7.52459 25.3382 14.281 4
12 15.8096 9.61741 22.1943 3
1 21.2842 29.7949 22.8092 1
5 2.38602 23.6768 29.9146 1
21 2.78582 22.2861 30.55 5
ITEM: TIMESTEP
280
ITEM: NUMBER OF ATOMS
25
ITEM: BOX BOUNDS ff ff ff
0.0000000000000000e+00 3.1305960336348480e+01
0.0000000000000000e+00 3.1305960336348480e+01
0.0000000000000000e+00 3.1305960336348480e+01
ITEM: ATOMS id x y z type
14 21.6345 8.57698 1.90794 3
15 19.7384 10.9344 1.00141 3
6 7.04466 17.6673 3.16105 2
24 14.1675 17.8312 2.26568 5
4 21.4552 16.3495 2.84334 1
13 23.6947 21.6047 4.27832 3
8 4.72037 1.95461 1.67348 2
23 4.49438 10.1253 3.09109 5
19 29.7086 16.9766 3.30143 4
2 19.7576 12.7149 4.32884 1
9 4.70302 30.2058 6.2655 2
17 21.9838 28.6201 7.74654 4
11 7.00639 13.7617 11.0207 3
10 22.0859 11.7284 12.7158 2
7 9.99713 11.9295 9.78297 2
18 15.7285 15.6414 12.9265 4
22 18.8216 27.6153 11.2837 5
16 1.37711 0.831657 14.4171 4
3 21.2775 11.9132 16.459 1
25 7.65982 19.0241 14.3604 5
20 7.4462 25.2476 14.0066 4
12 15.6947 9.72352 22.0671 3
1 21.6188 29.4875 22.7875 1
5 2.63459 23.7914 29.5701 1
21 2.91242 22.1252 30.2854 5
ITEM: TIMESTEP
290
ITEM: NUMBER OF ATOMS
25
ITEM: BOX BOUNDS ff ff ff
0.0000000000000000e+00 3.1305960336348480e+01
0.0000000000000000e+00 3.1305960336348480e+01
0.0000000000000000e+00 3.1305960336348480e+01
ITEM: ATOMS id x y z type
14 21.8662 8.73399 1.89758 3
15 19.7899 11.1325 1.08113 3
6 6.91927 17.6862 3.32988 2
24 14.4927 17.7907 2.36146 5
4 21.3812 16.2516 3.00833 1
13 23.6588 21.4909 4.55676 3
8 4.65299 1.88768 1.54314 2
23 4.77272 10.0723 3.06806 5
19 29.8112 17.1328 3.39072 4
2 19.8944 12.3197 4.26857 1
9 4.73344 30.306 6.42305 2
17 22.0661 28.4693 7.83094 4
11 7.02626 13.8831 11.0909 3
10 21.866 11.6882 12.7461 2
7 9.7518 11.7669 9.57407 2
18 15.8123 15.5971 13.2168 4
22 18.7191 27.8129 11.1256 5
16 1.54057 0.972317 14.3095 4
3 21.4684 12.017 16.8488 1
25 7.92718 18.9458 14.5281 5
20 7.36671 25.1533 13.7335 4
12 15.5829 9.83334 21.9387 3
1 21.9586 29.1825 22.7671 1
5 2.87246 23.9118 29.2387 1
21 3.03896 21.9644 30.0235 5
ITEM: TIMESTEP
300
ITEM: NUMBER OF ATOMS
25
ITEM: BOX BOUNDS ff ff ff
0.0000000000000000e+00 3.1305960336348480e+01
0.0000000000000000e+00 3.1305960336348480e+01
0.0000000000000000e+00 3.1305960336348480e+01
ITEM: ATOMS id x y z type
14 22.1109 8.89613 1.88807 3
15 19.8329 11.3324 1.16376 3
6 6.79676 17.71 3.49722 2
24 14.8257 17.7498 2.45378 5
4 21.3045 16.1511 3.17007 1
13 23.6222 21.3843 4.82963 3
8 4.58295 1.8219 1.40883 2
23 5.05508 10.0274 3.04562 5
19 29.9067 17.2912 3.49277 4
2 20.0285 11.9274 4.21126 1
9 4.76467 30.4008 6.59909 2
17 22.153 28.3269 7.90663 4
11 7.05381 14.0126 11.1612 3
10 21.6492 11.6395 12.7801 2
7 9.49876 11.6047 9.37314 2
18 15.8884 15.5618 13.5121 4
22 18.612 28.0094 10.9571 5
16 1.69712 1.10385 14.2076 4
3 21.6543 12.1223 17.2396 1
25 8.20294 18.8666 14.6923 5
20 7.29209 25.0594 13.46 4
12 15.4675 9.94697 21.8086 3
1 22.2902 28.8803 22.741 1
5 3.11576 24.039 28.9104 1
21 3.14742 21.8108 29.7564 5
ITEM: TIMESTEP
310
ITEM: NUMBER OF ATOMS
25
ITEM: BOX BOUNDS ff ff ff
0.0000000000000000e+00 3.1305960336348480e+01
0.0000000000000000e+00 3.1305960336348480e+01
0.0000000000000000e+00 3.1305960336348480e+01
ITEM: ATOMS id x y z type
8 4.51571 1.75787 1.27777 2
14 22.3598 9.05504 1.89244 3
15 19.8847 11.5299 1.25843 3
24 15.1549 17.7085 2.54846 5
23 5.34291 9.98991 3.02927 5
2 20.1567 11.5461 4.15984 1
6 6.66409 17.7397 3.66221 2
4 21.237 16.0614 3.33182 1
19 30.0093 17.4602 3.58781 4
13 23.5902 21.2788 5.10872 3
9 4.7913 30.4923 6.78246 2
7 9.23303 11.4392 9.16986 2
17 22.2388 28.1817 7.98407 4
10 21.4382 11.5888 12.8182 2
11 7.07364 14.1433 11.2308 3