ITEM: TIMESTEP
0
ITEM: NUMBER OF ATOMS
25
ITEM: BOX BOUNDS ff ff ff
0.0000000000000000e+00 3.1305960336348480e+01
0.0000000000000000e+00 3.1305960336348480e+01
0.0000000000000000e+00 3.1305960336348480e+01
ITEM: ATOMS id x y z type
14 15.1587 3.75525 1.67192 3
15 18.4836 5.11869 1.0943 3
19 26.5959 11.489 1.12564 4
6 9.25666 17.3266 0.880178 2
24 6.72726 19.2228 0.579358 5
9 3.72139 27.3274 2.2182 2
8 5.6813 2.44971 5.0164 2
23 2.48545 10.8783 4.17465 5
18 13.9861 18.5041 4.45524 4
4 23.5901 19.5936 2.76448 1
13 25.4867 26.1299 4.73582 3
17 19.7126 30.36 5.11015 4
3 17.1819 10.0755 5.29699 1
2 15.2549 23.8407 5.58904 1
11 6.44917 9.88203 9.09652 3
10 27.166 12.8401 12.0038 2
25 1.11885 20.9818 10.5812 5
22 21.1985 22.0978 15.3858 5
16 3.64167 2.43741 17.3129 4
7 16.7408 15.5785 15.8647 2
5 4.54242 20.5616 22.9134 1
20 9.80124 28.7032 21.4907 4
1 12.0642 24.7713 23.9698 1
21 0.83418 26.2987 25.5292 5
12 18.2267 7.31628 26.1404 3
ITEM: TIMESTEP
10
ITEM: NUMBER OF ATOMS
25
ITEM: BOX BOUNDS ff ff ff
0.0000000000000000e+00 3.1305960336348480e+01
0.0000000000000000e+00 3.1305960336348480e+01
0.0000000000000000e+00 3.1305960336348480e+01
ITEM: ATOMS id x y z type
14 15.4025 3.92849 1.7123 3
15 18.5106 5.30364 1.01265 3
19 26.7146 11.6813 1.18766 4
6 9.198 17.2891 0.743216 2
24 6.98282 19.1482 0.612243 5
9 3.74985 27.4401 2.3294 2
8 5.65105 2.45077 4.88733 2
23 2.26497 10.8429 4.15288 5
18 14.0467 18.3836 4.76287 4
4 23.517 19.4739 2.56372 1
13 25.399 25.9805 4.39951 3
17 19.8206 30.4687 5.20599 4
3 17.3135 10.1117 5.71998 1
2 15.4479 23.4486 5.55143 1
11 6.45826 10.0096 9.18143 3
10 27.0237 12.802 12.012 2
25 1.33282 20.8796 10.7088 5
22 21.1066 22.293 15.258 5
16 3.43424 2.32385 17.2512 4
7 16.5102 15.4608 15.606 2
5 4.28733 20.7113 23.2765 1
20 9.71914 28.5438 21.249 4
1 12.4207 25.0667 23.9033 1
21 0.66275 26.1315 25.7526 5
12 18.1469 7.37697 25.9398 3
ITEM: TIMESTEP
20
ITEM: NUMBER OF ATOMS
25
ITEM: BOX BOUNDS ff ff ff
0.0000000000000000e+00 3.1305960336348480e+01
0.0000000000000000e+00 3.1305960336348480e+01
0.0000000000000000e+00 3.1305960336348480e+01
ITEM: ATOMS id x y z type
14 15.6543 4.09824 1.76275 3
15 18.538 5.48501 0.940936 3
19 26.8273 11.8813 1.25087 4
6 9.13007 17.2575 0.609161 2
24 7.23499 19.073 0.639528 5
9 3.77161 27.5498 2.44212 2
8 5.62551 2.45792 4.76106 2
23 2.04869 10.7995 4.11712 5
18 14.1 18.2553 5.07334 4
4 23.444 19.3571 2.35732 1
13 25.3039 25.8194 4.05162 3
17 19.9228 30.5864 5.30343 4
3 17.4539 10.1382 6.13861 1
2 15.6314 23.0576 5.51386 1
11 6.4623 10.1384 9.2774 3
10 26.8698 12.7598 12.0103 2
25 1.54591 20.7944 10.8338 5
22 21.0158 22.4912 15.1244 5
16 3.23176 2.21599 17.188 4
7 16.2747 15.3383 15.3543 2
5 4.03754 20.8488 23.6306 1
20 9.63749 28.3814 20.9956 4
1 12.7805 25.3626 23.8379 1
21 0.491454 25.9754 25.9809 5
12 18.0624 7.44686 25.7475 3
ITEM: TIMESTEP
30
ITEM: NUMBER OF ATOMS
25
ITEM: BOX BOUNDS ff ff ff
0.0000000000000000e+00 3.1305960336348480e+01
0.0000000000000000e+00 3.1305960336348480e+01
0.0000000000000000e+00 3.1305960336348480e+01
ITEM: ATOMS id x y z type
14 15.9013 4.27055 1.80534 3
15 18.5561 5.65984 0.869196 3
19 26.9314 12.0836 1.31905 4
6 9.06472 17.2385 0.472007 2
24 7.48024 19.0021 0.664541 5
9 3.79995 27.6555 2.55896 2
8 5.59824 2.47272 4.63537 2
23 1.83777 10.7535 4.07918 5
18 14.1449 18.1293 5.38327 4
4 23.3701 19.2436 2.13956 1
13 25.2111 25.6558 3.69745 3
17 20.0188 30.7071 5.40463 4
3 17.6012 10.1758 6.55671 1
2 15.8113 22.6669 5.47553 1
11 6.47434 10.2795 9.36937 3
10 26.7154 12.7214 12.0053 2
25 1.76472 20.7213 10.9572 5
22 20.9216 22.7001 14.9853 5
16 3.03471 2.10082 17.1144 4
7 16.039 15.217 15.1132 2
5 3.79549 20.9911 23.984 1
20 9.55747 28.2213 20.7413 4
1 13.1497 25.6602 23.7827 1
21 0.325155 25.8264 26.2065 5
12 17.9905 7.51986 25.5637 3
ITEM: TIMESTEP
40
ITEM: NUMBER OF ATOMS
25
ITEM: BOX BOUNDS ff ff ff
0.0000000000000000e+00 3.1305960336348480e+01
0.0000000000000000e+00 3.1305960336348480e+01
0.0000000000000000e+00 3.1305960336348480e+01
ITEM: ATOMS id x y z type
14 16.1441 4.44132 1.84388 3
15 18.5719 5.83816 0.788427 3
19 27.0382 12.2823 1.39328 4
6 9.00685 17.2268 0.332801 2
24 7.72904 18.93 0.689956 5
9 3.84167 27.7649 2.68658 2
8 5.56978 2.49381 4.51672 2
23 1.62464 10.7 4.04033 5
18 14.1846 18.0046 5.69694 4
4 23.2892 19.1331 1.92207 1
13 25.1098 25.4895 3.34243 3
17 20.1019 30.8359 5.50489 4
3 17.7457 10.2076 6.97664 1
2 15.9935 22.2699 5.43815 1
11 6.4952 10.4237 9.46801 3
10 26.5469 12.6882 12.005 2
25 1.99133 20.6682 11.0827 5
22 20.8309 22.9152 14.8597 5
16 2.83337 1.98149 17.0303 4
7 15.8016 15.1016 14.8722 2
5 3.54735 21.1351 24.3431 1
20 9.48058 28.0668 20.4847 4
1 13.5162 25.9586 23.7278 1
21 0.161652 25.6798 26.4371 5
12 17.9291 7.59395 25.3874 3
ITEM: TIMESTEP
50
ITEM: NUMBER OF ATOMS
25
ITEM: BOX BOUNDS ff ff ff
0.0000000000000000e+00 3.1305960336348480e+01
0.0000000000000000e+00 3.1305960336348480e+01
0.0000000000000000e+00 3.1305960336348480e+01
ITEM: ATOMS id x y z type
14 16.3847 4.62228 1.87437 3
15 18.5789 6.02185 0.712547 3
19 27.1489 12.4748 1.4755 4
6 8.9517 17.2259 0.192142 2
24 7.97814 18.863 0.705774 5
9 3.88838 27.8761 2.80864 2
8 5.5457 2.50791 4.39713 2
23 1.41495 10.6434 3.99229 5
18 14.224 17.8865 6.0139 4
4 23.2084 19.0189 1.69754 1
13 25.0091 25.3207 2.99536 3
17 20.1872 30.9637 5.60581 4
3 17.8976 10.2413 7.39785 1
2 16.1762 21.8635 5.39861 1
11 6.51676 10.5614 9.57186 3
10 26.37 12.6565 11.9972 2
25 2.21901 20.6162 11.2189 5
22 20.7416 23.1269 14.7295 5
16 2.63463 1.86039 16.9384 4
7 15.559 14.9834 14.6347 2
5 3.30239 21.2697 24.7094 1
20 9.40504 27.9118 20.2175 4
1 13.8787 26.2548 23.681 1
21 0.00558033 25.5339 26.667 5
12 17.8643 7.67608 25.2131 3
ITEM: TIMESTEP
60
ITEM: NUMBER OF ATOMS
25
ITEM: BOX BOUNDS ff ff ff
0.0000000000000000e+00 3.1305960336348480e+01
0.0000000000000000e+00 3.1305960336348480e+01
0.0000000000000000e+00 3.1305960336348480e+01
ITEM: ATOMS id x y z type
14 16.6222 4.8042 1.90254 3
15 18.5852 6.21079 0.634234 3
19 27.2671 12.6674 1.55798 4
6 8.89947 17.2241 0.0532503 2
24 8.22421 18.7879 0.730015 5
9 3.93392 27.9776 2.92667 2
8 5.51473 2.52548 4.27809 2
23 1.2 10.5839 3.93968 5
18 14.2594 17.765 6.33527 4
4 23.1211 18.9034 1.47788 1
13 24.9162 25.1507 2.65395 3
17 20.2729 31.0908 5.71099 4
3 18.0527 10.2856 7.80751 1
2 16.362 21.4485 5.36514 1
11 6.54262 10.6975 9.65982 3
10 26.1824 12.6357 11.9993 2
25 2.45046 20.5651 11.3627 5
22 20.6583 23.3242 14.5875 5
16 2.43855 1.73467 16.8436 4
7 15.3144 14.8696 14.3979 2
5 3.06132 21.3997 25.0866 1
20 9.32997 27.7608 19.9537 4
1 14.2422 26.5445 23.6352 1
21 0.141626 25.3896 26.8892 5
12 17.7836 7.77146 25.0362 3
ITEM: TIMESTEP
70
ITEM: NUMBER OF ATOMS
25
ITEM: BOX BOUNDS ff ff ff
0.0000000000000000e+00 3.1305960336348480e+01
0.0000000000000000e+00 3.1305960336348480e+01
0.0000000000000000e+00 3.1305960336348480e+01
ITEM: ATOMS id x y z type
14 16.8531 4.98589 1.9237 3
15 18.5882 6.40452 0.554054 3
19 27.3984 12.8715 1.63624 4
6 8.84862 17.2198 0.0740443 2
24 8.46136 18.7203 0.76659 5
9 3.98236 28.079 3.04883 2
8 5.48497 2.55354 4.15832 2
23 0.986675 10.5372 3.88573 5
18 14.3071 17.6387 6.66007 4
4 23.039 18.784 1.25734 1
13 24.8364 24.9809 2.31703 3
17 20.357 31.2122 5.81682 4
3 18.1963 10.3401 8.21355 1
2 16.5454 21.0319 5.32811 1
11 6.57143 10.8387 9.73213 3
10 26.0038 12.6201 12.0063 2
25 2.67354 20.5145 11.5068 5
22 20.5846 23.5058 14.4442 5
16 2.23979 1.6202 16.742 4
7 15.0746 14.7648 14.1651 2
5 2.81465 21.5282 25.4702 1
20 9.25604 27.6055 19.6891 4
1 14.6072 26.8313 23.6016 1
21 0.2866 25.2419 27.1104 5
12 17.7077 7.87923 24.8621 3
ITEM: TIMESTEP
80
ITEM: NUMBER OF ATOMS
25
ITEM: BOX BOUNDS ff ff ff
0.0000000000000000e+00 3.1305960336348480e+01
0.0000000000000000e+00 3.1305960336348480e+01
0.0000000000000000e+00 3.1305960336348480e+01
ITEM: ATOMS id x y z type
14 17.0869 5.17801 1.93506 3
15 18.6016 6.60145 0.486621 3
19 27.5349 13.073 1.70413 4
6 8.80359 17.2294 0.198181 2
24 8.69856 18.6642 0.807057 5
9 4.02757 28.1947 3.1733 2
8 5.46439 2.58855 4.0392 2
23 0.764231 10.5004 3.82386 5
18 14.3582 17.5108 6.98649 4
4 22.9591 18.6521 1.03389 1
13 24.7643 24.8156 1.96715 3
17 20.4398 31.2843 5.90509 4
3 18.3377 10.4069 8.6255 1
2 16.7362 20.6201 5.28993 1
11 6.59721 10.9886 9.79451 3
10 25.8187 12.6056 12.0177 2
25 2.8978 20.4645 11.6519 5
22 20.5143 23.6914 14.2955 5
16 2.03499 1.50956 16.6445 4
7 14.8352 14.6592 13.9349 2
5 2.56193 21.6475 25.8466 1
20 9.17863 27.4482 19.4322 4
1 14.9727 27.1074 23.57 1
21 0.428574 25.097 27.3346 5
12 17.6305 7.98838 24.6916 3
ITEM: TIMESTEP
90
ITEM: NUMBER OF ATOMS
25
ITEM: BOX BOUNDS ff ff ff
0.0000000000000000e+00 3.1305960336348480e+01
0.0000000000000000e+00 3.1305960336348480e+01
0.0000000000000000e+00 3.1305960336348480e+01
ITEM: ATOMS id x y z type
14 17.3326 5.36415 1.93106 3
15 18.6349 6.80613 0.428852 3
19 27.6693 13.2682 1.78082 4
6 8.7544 17.2419 0.321235 2
24 8.9357 18.6083 0.840554 5
9 4.06598 28.3075 3.30237 2
8 5.4481 2.6167 3.91375 2
23 0.545982 10.4662 3.75128 5
18 14.4158 17.3923 7.30264 4
4 22.8848 18.5175 0.811703 1
13 24.6918 24.6457 1.62173 3
17 20.5224 31.1709 5.98922 4
3 18.4796 10.4815 9.03911 1
2 16.9292 20.2059 5.25065 1
11 6.61909 11.1473 9.85301 3
10 25.6342 12.5826 12.0265 2
25 3.12654 20.4121 11.7872 5
22 20.4456 23.8752 14.1645 5
16 1.83425 1.39532 16.5585 4
7 14.5938 14.546 13.7146 2
5 2.30719 21.7506 26.2231 1
20 9.09777 27.2956 19.1821 4
1 15.3334 27.3846 23.5302 1
21 0.564193 24.9589 27.5505 5
12 17.5513 8.08701 24.5296 3
ITEM: TIMESTEP
100
ITEM: NUMBER OF ATOMS
25
ITEM: BOX BOUNDS ff ff ff
0.0000000000000000e+00 3.1305960336348480e+01
0.0000000000000000e+00 3.1305960336348480e+01
0.0000000000000000e+00 3.1305960336348480e+01
ITEM: ATOMS id x y z type
14 17.5793 5.54451 1.92203 3
15 18.6713 7.01917 0.372863 3
19 27.7965 13.4664 1.85635 4
6 8.70157 17.2549 0.444709 2
24 9.17396 18.5548 0.881511 5
9 4.10546 28.4161 3.43905 2
8 5.42459 2.63586 3.7942 2
23 0.311836 10.4353 3.68855 5
18 14.478 17.28 7.61249 4
4 22.8082 18.3836 0.597007 1
13 24.6192 24.4799 1.27957 3
17 20.6131 31.0529 6.07609 4
3 18.613 10.5489 9.44608 1
2 17.1157 19.7999 5.21587 1
11 6.63554 11.3131 9.90145 3
10 25.4556 12.5504 12.0475 2
25 3.34969 20.3586 11.9207 5
22 20.3883 24.0584 14.0344 5
16 1.64089 1.27754 16.4674 4
7 14.3516 14.4313 13.505 2
5 2.05353 21.8478 26.6024 1
20 9.00969 27.1492 18.9272 4
1 15.6913 27.6678 23.4921 1
21 0.705221 24.827 27.7734 5
12 17.4647 8.18881 24.3738 3
ITEM: TIMESTEP
110
ITEM: NUMBER OF ATOMS
25
ITEM: BOX BOUNDS ff ff ff
0.0000000000000000e+00 3.1305960336348480e+01
0.0000000000000000e+00 3.1305960336348480e+01
0.0000000000000000e+00 3.1305960336348480e+01
ITEM: ATOMS id x y z type
14 17.8187 5.7188 1.9143 3
15 18.701 7.23985 0.309126 3
19 27.9117 13.6685 1.94483 4
6 8.64451 17.2632 0.566751 2
24 9.40703 18.5036 0.931197 5
4 22.7355 18.2506 0.388356 1
13 24.5544 24.3034 0.936753 3
8 5.39545 2.63999 3.684 2
23 0.0723682 10.4169 3.63678 5
2 17.2947 19.3972 5.19059 1
9 4.14068 28.52 3.5828 2
18 14.5506 17.1546 7.92203 4
17 20.7014 30.9282 6.16271 4
11 6.65244 11.4837 9.94863 3
3 18.7444 10.6147 9.85629 1
10 25.2681 12.5169 12.0669 2
25 3.57132 20.299 12.053 5
7 14.1141 14.3178 13.3003 2
22 20.3333 24.2469 13.8973 5
16 1.46197 1.16283 16.3777 4
20 8.91888 27.0029 18.6558 4
12 17.3704 8.28304 24.2258 3
1 16.0473 27.9368 23.4626 1
5 1.79669 21.9469 26.9771 1
21 0.849299 24.7014 28.0055 5
ITEM: TIMESTEP
120
ITEM: NUMBER OF ATOMS
25
ITEM: BOX BOUNDS ff ff ff
0.0000000000000000e+00 3.1305960336348480e+01
0.0000000000000000e+00 3.1305960336348480e+01
0.0000000000000000e+00 3.1305960336348480e+01
ITEM: ATOMS id x y z type
14 18.0461 5.89053 1.90907 3
15 18.7333 7.45464 0.240906 3
19 28.016 13.8765 2.03247 4
6 8.58753 17.2712 0.692624 2
24 9.6516 18.4568 0.985685 5
4 22.6683 18.1147 0.178006 1
13 24.4831 24.1259 0.60021 3
8 5.37304 2.63983 3.58144 2
23 0.163734 10.4039 3.59041 5
2 17.4645 18.9992 5.16918 1
9 4.17344 28.6168 3.73247 2
18 14.6174 17.0402 8.23415 4
17 20.7948 30.795 6.24359 4
11 6.66561 11.6487 9.98857 3
3 18.8703 10.6728 10.2543 1
10 25.0778 12.4844 12.0921 2
25 3.79147 20.2366 12.1748 5
7 13.8742 14.2004 13.0889 2
22 20.2764 24.4371 13.7559 5
16 1.2903 1.04971 16.2906 4
20 8.82585 26.866 18.3788 4
12 17.2716 8.3774 24.0752 3
1 16.397 28.2135 23.4228 1
5 1.54701 22.0539 27.3568 1
21 0.983334 24.5764 28.2443 5
ITEM: TIMESTEP
130
ITEM: NUMBER OF ATOMS
25
ITEM: BOX BOUNDS ff ff ff
0.0000000000000000e+00 3.1305960336348480e+01
0.0000000000000000e+00 3.1305960336348480e+01
0.0000000000000000e+00 3.1305960336348480e+01
ITEM: ATOMS id x y z type
14 18.2801 6.06467 1.90705 3
15 18.7711 7.67538 0.173222 3
19 28.1072 14.0804 2.11664 4
6 8.52393 17.2854 0.822963 2
24 9.91014 18.4159 1.03704 5
4 22.6007 17.9773 0.0227243 1
13 24.4156 23.9551 0.269594 3
8 5.34573 2.62775 3.47765 2
23 0.399433 10.3947 3.5413 5
2 17.6373 18.5992 5.15021 1
9 4.20728 28.7158 3.88118 2
18 14.6863 16.9276 8.54083 4
17 20.8929 30.6648 6.32433 4
11 6.68001 11.8166 10.041 3
3 18.9904 10.7393 10.6505 1
10 24.8861 12.4625 12.122 2
25 4.01442 20.1646 12.2992 5
7 13.6307 14.0839 12.869 2
22 20.2245 24.6242 13.6157 5
16 1.12972 0.929808 16.2015 4
20 8.72976 26.744 18.0966 4
12 17.1752 8.47083 23.9237 3
1 16.7395 28.4922 23.3779 1
5 1.29105 22.1577 27.7351 1
21 1.11566 24.4471 28.483 5
ITEM: TIMESTEP
140
ITEM: NUMBER OF ATOMS
25
ITEM: BOX BOUNDS ff ff ff
0.0000000000000000e+00 3.1305960336348480e+01
0.0000000000000000e+00 3.1305960336348480e+01
0.0000000000000000e+00 3.1305960336348480e+01
ITEM: ATOMS id x y z type
14 18.5198 6.23665 1.91519 3
15 18.8168 7.89669 0.0962609 3
19 28.2016 14.291 2.20128 4
6 8.46647 17.3073 0.962867 2
24 10.1679 18.3717 1.09361 5
4 22.5218 17.8447 0.214897 1
13 24.3499 23.7819 0.0681707 3
8 5.32076 2.60807 3.37232 2
23 0.638841 10.3985 3.49903 5
2 17.802 18.1952 5.12822 1
9 4.23678 28.806 4.02678 2
18 14.7565 16.8138 8.84128 4
17 20.9852 30.5406 6.41349 4
11 6.69706 11.9747 10.0994 3
3 19.1101 10.8052 11.0507 1
10 24.6983 12.44 12.1421 2
25 4.24169 20.0921 12.4294 5
7 13.3887 13.9633 12.6541 2
22 20.1661 24.8038 13.4771 5
16 0.976953 0.808188 16.1037 4
20 8.63285 26.6315 17.8105 4
12 17.0773 8.56153 23.7777 3
1 17.0808 28.771 23.3263 1
5 1.02825 22.2557 28.1043 1
21 1.24905 24.3159 28.7303 5
ITEM: TIMESTEP
150
ITEM: NUMBER OF ATOMS
25
ITEM: BOX BOUNDS ff ff ff
0.0000000000000000e+00 3.1305960336348480e+01
0.0000000000000000e+00 3.1305960336348480e+01
0.0000000000000000e+00 3.1305960336348480e+01
ITEM: ATOMS id x y z type
14 18.757 6.40349 1.9252 3
15 18.8658 8.11814 0.0251267 3
19 28.3057 14.5076 2.28179 4
6 8.39734 17.3252 1.10474 2
24 10.4238 18.3255 1.15731 5
4 22.4422 17.727 0.406445 1
13 24.2794 23.598 0.39746 3
8 5.29468 2.59293 3.26814 2
23 0.879229 10.4044 3.4654 5
2 17.9566 17.8003 5.09281 1
9 4.26398 28.8913 4.17411 2
18 14.8128 16.7005 9.13745 4
17 21.0745 30.4129 6.50325 4
11 6.71925 12.1258 10.1717 3
3 19.2324 10.8674 11.4447 1
10 24.5135 12.413 12.1715 2
25 4.46689 20.0157 12.557 5
7 13.1534 13.8375 12.4369 2
22 20.1082 24.9911 13.3419 5
16 0.818948 0.684917 16.0089 4
20 8.53827 26.5283 17.5278 4
12 16.9888 8.65407 23.6356 3
1 17.4143 29.0519 23.279 1
5 0.763005 22.3649 28.4715 1
21 1.3749 24.1796 28.9818 5
ITEM: TIMESTEP
160
ITEM: NUMBER OF ATOMS
25
ITEM: BOX BOUNDS ff ff ff
0.0000000000000000e+00 3.1305960336348480e+01
0.0000000000000000e+00 3.1305960336348480e+01
0.0000000000000000e+00 3.1305960336348480e+01
ITEM: ATOMS id x y z type
14 18.9909 6.56423 1.94377 3
15 18.9256 8.33516 0.0569568 3
19 28.4026 14.7202 2.35977 4
6 8.30836 17.3375 1.24182 2
24 10.6938 18.273 1.22182 5
4 22.3613 17.6158 0.598373 1
13 24.2146 23.4161 0.725555 3
8 5.27313 2.58325 3.15803 2
23 1.12436 10.4064 3.43625 5
2 18.0978 17.406 5.0464 1
9 4.29331 28.9772 4.33219 2
18 14.8684 16.5914 9.43246 4
17 21.1591 30.2811 6.59538 4
11 6.7451 12.2804 10.2438 3
3 19.3608 10.9246 11.8323 1
10 24.3309 12.3865 12.2084 2
25 4.69352 19.9353 12.6853 5
7 12.9212 13.7033 12.2097 2
22 20.0371 25.185 13.2005 5
16 0.652392 0.570497 15.9064 4
20 8.43609 26.4215 17.254 4
12 16.9014 8.74134 23.5043 3
1 17.7347 29.343 23.231 1
5 0.491719 22.4811 28.8362 1
21 1.49448 24.0335 29.2307 5
ITEM: TIMESTEP
170
ITEM: NUMBER OF ATOMS
25
ITEM: BOX BOUNDS ff ff ff
0.0000000000000000e+00 3.1305960336348480e+01
0.0000000000000000e+00 3.1305960336348480e+01
0.0000000000000000e+00 3.1305960336348480e+01
ITEM: ATOMS id x y z type
14 19.2169 6.73602 1.96237 3
15 18.9911 8.554 0.142899 3
19 28.4973 14.9283 2.43689 4
6 8.21508 17.355 1.37905 2
24 10.9683 18.2316 1.29186 5
4 22.2812 17.5017 0.782005 1
13 24.151 23.2409 1.04868 3
8 5.24271 2.56587 3.03626 2
23 1.37887 10.4018 3.40275 5
2 18.2478 17.0129 4.99362 1
9 4.33348 29.0803 4.50123 2
18 14.9163 16.4843 9.72742 4
17 21.2465 30.1518 6.69821 4
11 6.76342 12.4344 10.3135 3
3 19.5018 10.9817 12.2222 1
10 24.1561 12.359 12.2447 2
25 4.91477 19.8624 12.8169 5
7 12.6865 13.5677 11.9828 2
22 19.9436 25.3877 13.0578 5
16 0.489431 0.472719 15.8069 4
20 8.3391 26.3181 16.9795 4
12 16.8069 8.82334 23.3857 3
1 18.0464 29.6445 23.1895 1
5 0.218719 22.5888 29.1994 1
21 1.61277 23.8925 29.4709 5
ITEM: TIMESTEP
180
ITEM: NUMBER OF ATOMS
25
ITEM: BOX BOUNDS ff ff ff
0.0000000000000000e+00 3.1305960336348480e+01
0.0000000000000000e+00 3.1305960336348480e+01
0.0000000000000000e+00 3.1305960336348480e+01
ITEM: ATOMS id x y z type
14 19.4318 6.90555 1.97128 3
15 19.066 8.77295 0.221747 3
19 28.5934 15.1298 2.51456 4
6 8.11987 17.3792 1.52069 2
24 11.2346 18.1958 1.36445 5
4 22.1989 17.3838 0.966617 1
13 24.0867 23.0633 1.36753 3
8 5.21385 2.54338 2.90803 2
23 1.64369 10.3903 3.36722 5
2 18.391 16.6246 4.93767 1
9 4.3684 29.186 4.66341 2
18 14.9698 16.3848 10.0101 4
17 21.3177 30.0293 6.80159 4
11 6.77555 12.5736 10.3933 3
3 19.6549 11.0524 12.6076 1
10 23.9718 12.3178 12.2881 2
25 5.13269 19.7824 12.9502 5
7 12.4484 13.4259 11.7666 2
22 19.8453 25.5895 12.9168 5
16 0.328707 0.375844 15.6962 4
20 8.24137 26.2224 16.7071 4
12 16.7098 8.90063 23.2749 3
1 18.3538 29.9645 23.1502 1
5 0.054626 22.6975 29.5598 1
21 1.73483 23.7433 29.7169 5
ITEM: TIMESTEP
190
ITEM: NUMBER OF ATOMS
25
ITEM: BOX BOUNDS ff ff ff
0.0000000000000000e+00 3.1305960336348480e+01
0.0000000000000000e+00 3.1305960336348480e+01
0.0000000000000000e+00 3.1305960336348480e+01
ITEM: ATOMS id x y z type
14 19.6473 7.07845 1.9835 3
15 19.1429 9.00252 0.296758 3
19 28.6979 15.3286 2.59222 4
6 8.02777 17.4122 1.6689 2
24 11.5031 18.1699 1.43585 5
4 22.1061 17.2635 1.15875 1
13 24.0229 22.8948 1.66706 3
8 5.18447 2.51078 2.77639 2
23 1.91863 10.3714 3.33233 5
2 18.5288 16.223 4.8753 1
9 4.40661 29.2848 4.81407 2
18 15.029 16.2899 10.2917 4
17 21.3832 29.8998 6.90912 4
11 6.78898 12.7067 10.4552 3
3 19.8085 11.1269 12.9963 1
10 23.7867 12.2683 12.3267 2
25 5.35703 19.7029 13.0848 5
7 12.2031 13.2915 11.5496 2
22 19.7505 25.7935 12.7649 5
16 0.162845 0.282388 15.5744 4
20 8.14228 26.1277 16.4338 4
12 16.62 8.97679 23.1634 3
1 18.669 30.2899 23.1113 1
5 0.321788 22.8046 29.9175 1
21 1.85627 23.5878 29.9627 5
ITEM: TIMESTEP
200
ITEM: NUMBER OF ATOMS
24
ITEM: BOX BOUNDS ff ff ff
0.0000000000000000e+00 3.1305960336348480e+01
0.0000000000000000e+00 3.1305960336348480e+01
0.0000000000000000e+00 3.1305960336348480e+01
ITEM: ATOMS id x y z type
14 19.8615 7.25233 1.98875 3
15 19.2118 9.22842 0.370516 3
19 28.8109 15.5331 2.66641 4
6 7.93282 17.4442 1.8314 2
24 11.7793 18.141 1.51066 5
4 22.0223 17.145 1.3565 1
13 23.9602 22.731 1.95298 3
8 5.15268 2.46402 2.64096 2
23 2.2005 10.3559 3.29958 5
21 1.96471 23.4245 30.2119 5
9 4.43712 29.384 4.9613 2
18 15.0873 16.1994 10.5787 4
17 21.4509 29.7633 7.01701 4
11 6.78946 12.8395 10.5147 3
3 19.958 11.1993 13.3823 1
10 23.6011 12.2083 12.3696 2
25 5.59453 19.6258 13.2079 5
7 11.9544 13.1601 11.3373 2
22 19.6529 25.9972 12.6112 5
16 0.0050158 0.187973 15.4453 4
20 8.04705 26.0249 16.1685 4
12 16.5264 9.05215 23.0493 3
1 18.9936 30.6158 23.0697 1
5 0.572685 22.9141 30.274 1
ITEM: TIMESTEP
210
ITEM: NUMBER OF ATOMS
24
ITEM: BOX BOUNDS ff ff ff
0.0000000000000000e+00 3.1305960336348480e+01
0.0000000000000000e+00 3.1305960336348480e+01
0.0000000000000000e+00 3.1305960336348480e+01
ITEM: ATOMS id x y z type
14 20.0893 7.42309 1.9944 3
15 19.2799 9.45072 0.444027 3
6 7.82833 17.4782 2.0034 2
24 12.0511 18.1086 1.58933 5
4 21.9435 17.0274 1.55346 1
13 23.8978 22.5703 2.23909 3
8 5.11893 2.41615 2.50912 2
23 2.49646 10.3299 3.26653 5
19 28.9279 15.7458 2.73885 4
9 4.47707 29.488 5.11782 2
17 21.5208 29.6337 7.12592 4
11 6.7941 12.965 10.5855 3
10 23.4121 12.1402 12.4084 2
7 11.7098 13.0385 11.1288 2
18 15.1437 16.112 10.8721 4
22 19.5495 26.1992 12.4566 5
16 0.171337 0.0853862 15.3126 4
3 20.1081 11.2665 13.774 1
25 5.838 19.5461 13.3318 5
20 7.95594 25.9164 15.897 4
12 16.4175 9.12195 22.9227 3
1 19.3263 30.9363 23.0303 1
21 2.07937 23.2624 30.4672 5
5 0.826071 23.0203 30.6226 1
ITEM: TIMESTEP
220
ITEM: NUMBER OF ATOMS
24
ITEM: BOX BOUNDS ff ff ff
0.0000000000000000e+00 3.1305960336348480e+01
0.0000000000000000e+00 3.1305960336348480e+01
0.0000000000000000e+00 3.1305960336348480e+01
ITEM: ATOMS id x y z type
14 20.3076 7.60213 2.00445 3
15 19.3573 9.67548 0.521071 3
6 7.72764 17.5089 2.16461 2
24 12.3272 18.0674 1.67874 5
4 21.8687 16.9076 1.75145 1
13 23.8434 22.4183 2.51765 3
8 5.08748 2.37748 2.37399 2
23 2.79272 10.2979 3.22965 5
19 29.0369 15.959 2.81809 4
9 4.51951 29.5982 5.27757 2
17 21.5991 29.4923 7.25011 4
11 6.80325 13.0829 10.6498 3
10 23.2339 12.0607 12.4416 2
7 11.4606 12.9229 10.9284 2
18 15.2032 16.0259 11.1576 4
22 19.4514 26.4066 12.2978 5
16 0.337 0.0240931 15.1845 4
3 20.2672 11.3215 14.1723 1
25 6.08965 19.4793 13.4634 5
20 7.86505 25.8076 15.6214 4
12 16.3138 9.2025 22.7847 3
1 19.6671 31.2479 22.99 1
21 2.20689 23.1005 30.7218 5
5 1.09029 23.1151 30.9687 1
ITEM: TIMESTEP
230
ITEM: NUMBER OF ATOMS
24
ITEM: BOX BOUNDS ff ff ff
0.0000000000000000e+00 3.1305960336348480e+01
0.0000000000000000e+00 3.1305960336348480e+01
0.0000000000000000e+00 3.1305960336348480e+01
ITEM: ATOMS id x y z type
14 20.5284 7.78317 2.0122 3
15 19.4292 9.89999 0.604594 3
6 7.63074 17.5447 2.33311 2
24 12.6049 18.0173 1.77029 5
4 21.7889 16.7886 1.94531 1
13 23.7886 22.2616 2.79713 3
8 5.06715 2.34607 2.23464 2
23 3.09228 10.2619 3.18707 5
19 29.1424 16.172 2.89876 4
9 4.56393 29.7089 5.44726 2
17 21.6729 29.3443 7.37786 4
11 6.81321 13.1986 10.7184 3
10 23.068 11.9808 12.4784 2
7 11.218 12.8168 10.7255 2
18 15.2613 15.9368 11.4436 4
22 19.3605 26.6154 12.1281 5
16 0.491503 0.131892 15.0632 4
3 20.4285 11.3708 14.5731 1
25 6.35156 19.4252 13.5888 5
20 7.7668 25.6974 15.3587 4
12 16.2111 9.28427 22.6491 3
1 20.015 31.0529 22.9373 1
21 2.32292 22.941 30.9817 5
5 1.35087 23.2071 31.2909 1
ITEM: TIMESTEP
240
ITEM: NUMBER OF ATOMS
24
ITEM: BOX BOUNDS ff ff ff
0.0000000000000000e+00 3.1305960336348480e+01
0.0000000000000000e+00 3.1305960336348480e+01
0.0000000000000000e+00 3.1305960336348480e+01
ITEM: ATOMS id x y z type
14 20.7599 7.9689 2.00981 3
15 19.5125 10.1291 0.683728 3
6 7.53746 17.5848 2.49914 2
24 12.8763 17.9741 1.85924 5
4 21.7122 16.669 2.13687 1
13 23.7391 22.1161 3.0726 3
8 5.05782 2.32487 2.09499 2
23 3.39483 10.224 3.14275 5
19 29.2402 16.3904 2.98486 4
9 4.61102 29.8158 5.62178 2
17 21.7484 29.1924 7.50779 4
11 6.82887 13.3128 10.7949 3
10 22.9006 11.9061 12.5212 2
7 10.9648 12.7079 10.5317 2
18 15.3233 15.8505 11.7117 4
22 19.2679 26.8197 11.9705 5
16 0.636758 0.232839 14.9365 4
3 20.5888 11.4242 14.9672 1
25 6.60943 19.3656 13.7141 5
20 7.67112 25.587 15.1126 4
12 16.1013 9.37371 22.5256 3
1 20.3656 30.7406 22.8847 1
21 2.43058 22.7886 31.2386 5
5 1.60883 23.2956 30.9377 1
ITEM: TIMESTEP
250
ITEM: NUMBER OF ATOMS
24
ITEM: BOX BOUNDS ff ff ff
0.0000000000000000e+00 3.1305960336348480e+01
0.0000000000000000e+00 3.1305960336348480e+01
0.0000000000000000e+00 3.1305960336348480e+01
ITEM: ATOMS id x y z type
14 20.9934 8.15379 2.00439 3
15 19.5972 10.3538 0.755808 3
6 7.43314 17.6213 2.66661 2
24 13.1435 17.9373 1.95221 5
4 21.6324 16.5449 2.31866 1
13 23.6949 21.971 3.34915 3
8 5.05367 2.30488 1.95571 2
23 3.69504 10.1808 3.09773 5
19 29.3335 16.6139 3.07947 4
9 4.66795 29.9232 5.79522 2
17 21.8255 29.0316 7.63513 4
11 6.84967 13.4203 10.8671 3
10 22.7451 11.8344 12.5684 2
7 10.7105 12.5971 10.3475 2
18 15.385 15.7808 11.9806 4
22 19.1719 27.026 11.8151 5
16 0.779186 0.319692 14.8012 4
3 20.7554 11.4797 15.3514 1
25 6.8621 19.3032 13.8383 5
20 7.585 25.4688 14.8649 4
12 15.9904 9.48034 22.4162 3
1 20.7227 30.4355 22.8368 1
21 2.54516 22.6263 31.1142 5
5 1.86709 23.3779 30.5846 1
ITEM: TIMESTEP
260
ITEM: NUMBER OF ATOMS
24
ITEM: BOX BOUNDS ff ff ff
0.0000000000000000e+00 3.1305960336348480e+01
0.0000000000000000e+00 3.1305960336348480e+01
0.0000000000000000e+00 3.1305960336348480e+01
ITEM: ATOMS id x y z type
14 21.2263 8.33547 1.9916 3
15 19.6898 10.5737 0.82567 3
6 7.32176 17.6541 2.82938 2
24 13.4093 17.8978 2.05089 5
4 21.5522 16.4244 2.49738 1
13 23.6482 21.8203 3.62541 3
8 5.04653 2.2814 1.82272 2
23 3.9858 10.1395 3.05079 5
19 29.4342 16.832 3.18057 4
9 4.72165 30.0326 5.95701 2
17 21.8952 28.8751 7.75873 4
11 6.86961 13.5206 10.9268 3
10 22.5962 11.761 12.6175 2
7 10.4523 12.4756 10.1596 2
18 15.4486 15.7247 12.2576 4
22 19.0749 27.2339 11.6588 5
16 0.931685 0.394205 14.6636 4
3 20.9257 11.535 15.7339 1
25 7.1076 19.2484 13.969 5
20 7.50571 25.3485 14.6216 4
12 15.8782 9.60056 22.31 3
1 21.0721 30.1393 22.787 1
21 2.66706 22.4571 30.8478 5
5 2.12635 23.4574 30.2284 1
ITEM: TIMESTEP
270
ITEM: NUMBER OF ATOMS
24
ITEM: BOX BOUNDS ff ff ff
0.0000000000000000e+00 3.1305960336348480e+01
0.0000000000000000e+00 3.1305960336348480e+01
0.0000000000000000e+00 3.1305960336348480e+01
ITEM: ATOMS id x y z type
14 21.4672 8.50932 1.97717 3
15 19.7858 10.8032 0.901132 3
6 7.20401 17.6819 2.98955 2
24 13.6692 17.8483 2.15887 5
4 21.476 16.3022 2.6887 1
13 23.5943 21.6761 3.90087 3
8 5.03876 2.25578 1.69707 2
23 4.28117 10.0992 3.00003 5
19 29.5417 17.0526 3.28719 4
9 4.77645 30.1528 6.12394 2
17 21.9596 28.7154 7.8813 4
11 6.88965 13.6222 10.9815 3
10 22.437 11.6759 12.6585 2
7 10.1989 12.363 9.96883 2
18 15.5128 15.6668 12.5322 4
22 18.9769 27.4377 11.501 5
16 1.08615 0.463949 14.527 4
3 21.0971 11.5828 16.1178 1
25 7.35765 19.1997 14.1107 5
20 7.43338 25.2263 14.391 4
12 15.7705 9.72414 22.2075 3
1 21.4123 29.8427 22.7238 1
21 2.80635 22.2961 30.5774 5
5 2.38619 23.5448 29.8726 1
ITEM: TIMESTEP
280
ITEM: NUMBER OF ATOMS
24
ITEM: BOX BOUNDS ff ff ff
0.0000000000000000e+00 3.1305960336348480e+01
0.0000000000000000e+00 3.1305960336348480e+01
0.0000000000000000e+00 3.1305960336348480e+01
ITEM: ATOMS id x y z type
14 21.7139 8.67204 1.96109 3
15 19.8823 11.035 0.969349 3
6 7.08585 17.6986 3.15477 2
24 13.9322 17.7941 2.2605 5
4 21.3978 16.1719 2.87087 1
13 23.5308 21.5405 4.17921 3
8 5.02151 2.22753 1.57619 2
23 4.57951 10.0672 2.94515 5
19 29.6455 17.2749 3.38937 4
9 4.82458 30.2813 6.28514 2
17 22.0187 28.549 8.01625 4
11 6.91061 13.7197 11.0446 3
10 22.2673 11.5978 12.7028 2
7 9.94335 12.2561 9.77128 2
18 15.5759 15.6105 12.7983 4
22 18.8833 27.646 11.339 5
16 1.25461 0.528885 14.387 4
3 21.2675 11.6316 16.5035 1
25 7.59822 19.1548 14.2533 5
20 7.35021 25.1059 14.1796 4
12 15.6511 9.84433 22.1134 3
1 21.7482 29.5539 22.6588 1
21 2.95471 22.1446 30.3084 5
5 2.65231 23.626 29.5254 1
ITEM: TIMESTEP
290
ITEM: NUMBER OF ATOMS
24
ITEM: BOX BOUNDS ff ff ff
0.0000000000000000e+00 3.1305960336348480e+01
0.0000000000000000e+00 3.1305960336348480e+01
0.0000000000000000e+00 3.1305960336348480e+01
ITEM: ATOMS id x y z type
14 21.9645 8.83108 1.949 3
15 19.9804 11.2695 1.0309 3
6 6.97009 17.7267 3.32513 2
24 14.194 17.7373 2.36654 5
4 21.3118 16.039 3.03607 1
13 23.4588 21.4026 4.46123 3
8 4.99314 2.20276 1.46526 2
23 4.87926 10.0319 2.88849 5
19 29.7537 17.5021 3.49093 4
9 4.86628 30.3975 6.44446 2
17 22.0816 28.3914 8.15409 4
11 6.93634 13.8189 11.1057 3
10 22.0968 11.5205 12.7379 2
7 9.68012 12.1521 9.5626 2
18 15.6371 15.5553 13.0559 4
22 18.7859 27.8473 11.181 5
16 1.42972 0.598318 14.2409 4
3 21.442 11.6756 16.8895 1
25 7.82764 19.1099 14.385 5
20 7.25139 24.9932 13.9793 4
12 15.5278 9.97083 22.0152 3
1 22.0858 29.2634 22.5985 1
21 3.10389 21.9946 30.0443 5
5 2.9224 23.7043 29.187 1
ITEM: TIMESTEP
300
ITEM: NUMBER OF ATOMS
23
ITEM: BOX BOUNDS ff ff ff
0.0000000000000000e+00 3.1305960336348480e+01
0.0000000000000000e+00 3.1305960336348480e+01
0.0000000000000000e+00 3.1305960336348480e+01
ITEM: ATOMS id x y z type
14 22.2248 8.97846 1.9303 3
15 20.0775 11.5021 1.09131 3
6 6.84095 17.7681 3.49771 2
24 14.4488 17.6755 2.46635 5
4 21.2252 15.9132 3.20171 1
13 23.3853 21.2701 4.75212 3
8 4.96139 2.18303 1.35344 2
23 5.18619 9.99204 2.82706 5
19 29.8587 17.7335 3.60124 4
9 4.90731 30.5129 6.6006 2
5 3.19347 23.7826 28.8508 1
11 6.96222 13.9294 11.1678 3
10 21.9384 11.4367 12.7746 2
7 9.40923 12.045 9.36038 2
18 15.7034 15.5007 13.3047 4
22 18.6805 28.0462 11.0279 5
16 1.60679 0.671028 14.1003 4
3 21.6128 11.7175 17.2666 1
25 8.05144 19.0817 14.5147 5
20 7.14944 24.8891 13.7862 4
12 15.3988 10.097 21.9146 3
1 22.4128 28.9699 22.5439 1
21 3.25175 21.8451 29.7861 5
ITEM: TIMESTEP
310
ITEM: NUMBER OF ATOMS
23
ITEM: BOX BOUNDS ff ff ff
0.0000000000000000e+00 3.1305960336348480e+01
0.0000000000000000e+00 3.1305960336348480e+01
0.0000000000000000e+00 3.1305960336348480e+01
ITEM: ATOMS id x y z type
8 4.93478 2.17777 1.23177 2
14 22.4889 9.11519 1.90547 3
15 20.1819 11.7353 1.14813 3
24 14.7083 17.6234 2.56669 5
23 5.49938 9.94673 2.77415 5
6 6.70535 17.8117 3.66678 2
4 21.1407 15.7908 3.36997 1
19 29.9696 17.9716 3.71587 4
13 23.3143 21.1378 5.04705 3
9 4.94162 30.6199 6.7598 2
7 9.13859 11.9425 9.16632 2
10 21.7853 11.3608 12.821 2
11 6.98563 14.0384 11.2379 3
22 18.5712 28.2515 10.8755 5
16 1.77735 0.743883 13.9662 4
18 15.7736 15.4454 13.5505 4
25 8.26548 19.055 14.6502 5
20 7.04308 24.7863 13.584 4
3 21.7889 11.7638 17.6421 1
12 15.2575 10.228 21.8064 3
1 22.7384 28.6888 22.4875 1
21 3.3874 21.6857 29.5271 5
5 3.47401 23.8624 28.512 1
ITEM: TIMESTEP
320
ITEM: NUMBER OF ATOMS
23
ITEM: BOX BOUNDS ff ff ff