ITEM: TIMESTEP
0
ITEM: NUMBER OF ATOMS
0
ITEM: BOX BOUNDS ff ff ff
0.0000000000000000e+00 3.1305960336348480e+01
0.0000000000000000e+00 3.1305960336348480e+01
0.0000000000000000e+00 3.1305960336348480e+01
ITEM: ATOMS id x y z type
ITEM: TIMESTEP
10
ITEM: NUMBER OF ATOMS
3
ITEM: BOX BOUNDS ff ff ff
0.0000000000000000e+00 3.1305960336348480e+01
0.0000000000000000e+00 3.1305960336348480e+01
0.0000000000000000e+00 3.1305960336348480e+01
ITEM: ATOMS id x y z type
6 16.4088 3.58087 18.1458 1
7 25.8601 31.2632 21.615 2
8 12.7239 26.5317 15.1186 3
ITEM: TIMESTEP
20
ITEM: NUMBER OF ATOMS
3
ITEM: BOX BOUNDS ff ff ff
0.0000000000000000e+00 3.1305960336348480e+01
0.0000000000000000e+00 3.1305960336348480e+01
0.0000000000000000e+00 3.1305960336348480e+01
ITEM: ATOMS id x y z type
6 16.4122 3.59232 18.1403 1
7 25.8637 31.2646 21.6146 2
8 12.7251 26.5278 15.1222 3
ITEM: TIMESTEP
30
ITEM: NUMBER OF ATOMS
3
ITEM: BOX BOUNDS ff ff ff
0.0000000000000000e+00 3.1305960336348480e+01
0.0000000000000000e+00 3.1305960336348480e+01
0.0000000000000000e+00 3.1305960336348480e+01
ITEM: ATOMS id x y z type
6 16.4143 3.61283 18.1311 1
7 25.8672 31.2698 21.6045 2
8 12.7308 26.5219 15.1104 3
ITEM: TIMESTEP
40
ITEM: NUMBER OF ATOMS
3
ITEM: BOX BOUNDS ff ff ff
0.0000000000000000e+00 3.1305960336348480e+01
0.0000000000000000e+00 3.1305960336348480e+01
0.0000000000000000e+00 3.1305960336348480e+01
ITEM: ATOMS id x y z type
6 16.4089 3.6335 18.1134 1
7 25.8638 31.2814 21.5956 2
8 12.7343 26.5173 15.0894 3
ITEM: TIMESTEP
50
ITEM: NUMBER OF ATOMS
3
ITEM: BOX BOUNDS ff ff ff
0.0000000000000000e+00 3.1305960336348480e+01
0.0000000000000000e+00 3.1305960336348480e+01
0.0000000000000000e+00 3.1305960336348480e+01
ITEM: ATOMS id x y z type
6 16.4014 3.65987 18.1096 1
7 25.8496 31.2876 21.587 2
8 12.7414 26.5 15.0665 3
ITEM: TIMESTEP
60
ITEM: NUMBER OF ATOMS
3
ITEM: BOX BOUNDS ff ff ff
0.0000000000000000e+00 3.1305960336348480e+01
0.0000000000000000e+00 3.1305960336348480e+01
0.0000000000000000e+00 3.1305960336348480e+01
ITEM: ATOMS id x y z type
6 16.4012 3.69582 18.1065 1
7 25.8362 31.2947 21.5729 2
8 12.7498 26.4827 15.0326 3
ITEM: TIMESTEP
70
ITEM: NUMBER OF ATOMS
3
ITEM: BOX BOUNDS ff ff ff
0.0000000000000000e+00 3.1305960336348480e+01
0.0000000000000000e+00 3.1305960336348480e+01
0.0000000000000000e+00 3.1305960336348480e+01
ITEM: ATOMS id x y z type
6 16.3975 3.73548 18.1049 1
7 25.8184 31.3012 21.5532 2
8 12.7657 26.4797 14.9902 3
ITEM: TIMESTEP
80
ITEM: NUMBER OF ATOMS
3
ITEM: BOX BOUNDS ff ff ff
0.0000000000000000e+00 3.1305960336348480e+01
0.0000000000000000e+00 3.1305960336348480e+01
0.0000000000000000e+00 3.1305960336348480e+01
ITEM: ATOMS id x y z type
6 16.3869 3.77744 18.0968 1
7 25.8112 31.2797 21.5464 2
8 12.7756 26.4829 14.9385 3
ITEM: TIMESTEP
90
ITEM: NUMBER OF ATOMS
3
ITEM: BOX BOUNDS ff ff ff
0.0000000000000000e+00 3.1305960336348480e+01
0.0000000000000000e+00 3.1305960336348480e+01
0.0000000000000000e+00 3.1305960336348480e+01
ITEM: ATOMS id x y z type
6 16.3866 3.82521 18.0836 1
7 25.8112 31.2624 21.5455 2
8 12.7801 26.4854 14.8888 3
ITEM: TIMESTEP
100
ITEM: NUMBER OF ATOMS
3
ITEM: BOX BOUNDS ff ff ff
0.0000000000000000e+00 3.1305960336348480e+01
0.0000000000000000e+00 3.1305960336348480e+01
0.0000000000000000e+00 3.1305960336348480e+01
ITEM: ATOMS id x y z type
6 16.3825 3.87088 18.062 1
7 25.8133 31.2437 21.5495 2
8 12.7794 26.4985 14.8502 3
ITEM: TIMESTEP
110
ITEM: NUMBER OF ATOMS
6
ITEM: BOX BOUNDS ff ff ff
0.0000000000000000e+00 3.1305960336348480e+01
0.0000000000000000e+00 3.1305960336348480e+01
0.0000000000000000e+00 3.1305960336348480e+01
ITEM: ATOMS id x y z type
8 12.7808 26.5131 14.8141 3
6 16.3792 3.90713 18.0342 1
7 25.8103 31.2321 21.5557 2
9 30.2603 30.6704 21.8837 1
10 26.6811 9.0605 29.0765 2
11 24.9988 19.9186 9.28759 3
ITEM: TIMESTEP
120
ITEM: NUMBER OF ATOMS
6
ITEM: BOX BOUNDS ff ff ff
0.0000000000000000e+00 3.1305960336348480e+01
0.0000000000000000e+00 3.1305960336348480e+01
0.0000000000000000e+00 3.1305960336348480e+01
ITEM: ATOMS id x y z type
8 12.7903 26.5306 14.7819 3
6 16.3813 3.95738 18.0111 1
7 25.7993 31.2202 21.5637 2
9 30.2587 30.6786 21.8831 1
10 26.6886 9.06265 29.078 2
11 25.0073 19.9196 9.29291 3
ITEM: TIMESTEP
130
ITEM: NUMBER OF ATOMS
6
ITEM: BOX BOUNDS ff ff ff
0.0000000000000000e+00 3.1305960336348480e+01
0.0000000000000000e+00 3.1305960336348480e+01
0.0000000000000000e+00 3.1305960336348480e+01
ITEM: ATOMS id x y z type
8 12.8024 26.5603 14.747 3
6 16.3828 4.01581 17.9746 1
7 25.7856 31.1955 21.5769 2
9 30.259 30.6875 21.8756 1
10 26.7014 9.06928 29.0699 2
11 25.0141 19.9188 9.29421 3
ITEM: TIMESTEP
140
ITEM: NUMBER OF ATOMS
6
ITEM: BOX BOUNDS ff ff ff
0.0000000000000000e+00 3.1305960336348480e+01
0.0000000000000000e+00 3.1305960336348480e+01
0.0000000000000000e+00 3.1305960336348480e+01
ITEM: ATOMS id x y z type
8 12.8147 26.5937 14.6986 3
6 16.3807 4.07166 17.923 1
7 25.7627 31.1712 21.592 2
9 30.259 30.6975 21.8589 1
10 26.7135 9.06536 29.055 2
11 25.0145 19.908 9.29373 3
ITEM: TIMESTEP
150
ITEM: NUMBER OF ATOMS
6
ITEM: BOX BOUNDS ff ff ff
0.0000000000000000e+00 3.1305960336348480e+01
0.0000000000000000e+00 3.1305960336348480e+01
0.0000000000000000e+00 3.1305960336348480e+01
ITEM: ATOMS id x y z type
8 12.8211 26.6285 14.6457 3
6 16.3722 4.12219 17.8712 1
7 25.7384 31.1419 21.6109 2
9 30.2624 30.7097 21.8417 1
10 26.7268 9.05949 29.031 2
11 25.0172 19.9 9.29603 3
ITEM: TIMESTEP
160
ITEM: NUMBER OF ATOMS
6
ITEM: BOX BOUNDS ff ff ff
0.0000000000000000e+00 3.1305960336348480e+01
0.0000000000000000e+00 3.1305960336348480e+01
0.0000000000000000e+00 3.1305960336348480e+01
ITEM: ATOMS id x y z type
8 12.829 26.6728 14.5938 3
6 16.3639 4.16167 17.8277 1
7 25.7182 31.1026 21.6272 2
9 30.256 30.7215 21.8218 1
10 26.7408 9.05256 29.0086 2
11 25.0196 19.8963 9.29447 3
ITEM: TIMESTEP
170
ITEM: NUMBER OF ATOMS
6
ITEM: BOX BOUNDS ff ff ff
0.0000000000000000e+00 3.1305960336348480e+01
0.0000000000000000e+00 3.1305960336348480e+01
0.0000000000000000e+00 3.1305960336348480e+01
ITEM: ATOMS id x y z type
8 12.8435 26.7186 14.547 3
6 16.3726 4.19854 17.7884 1
7 25.7031 31.0657 21.6454 2
9 30.2528 30.7309 21.8067 1
10 26.7464 9.04238 28.9927 2
11 25.0097 19.8978 9.28773 3
ITEM: TIMESTEP
180
ITEM: NUMBER OF ATOMS
6
ITEM: BOX BOUNDS ff ff ff
0.0000000000000000e+00 3.1305960336348480e+01
0.0000000000000000e+00 3.1305960336348480e+01
0.0000000000000000e+00 3.1305960336348480e+01
ITEM: ATOMS id x y z type
8 12.8653 26.7714 14.5063 3
6 16.3889 4.24234 17.7555 1
7 25.6924 31.0468 21.6599 2
9 30.2503 30.744 21.7893 1
10 26.7477 9.02651 28.9765 2
11 25.0039 19.9 9.28333 3
ITEM: TIMESTEP
190
ITEM: NUMBER OF ATOMS
6
ITEM: BOX BOUNDS ff ff ff
0.0000000000000000e+00 3.1305960336348480e+01
0.0000000000000000e+00 3.1305960336348480e+01
0.0000000000000000e+00 3.1305960336348480e+01
ITEM: ATOMS id x y z type
8 12.8773 26.831 14.4547 3
6 16.4085 4.2837 17.7184 1
7 25.6935 31.0294 21.668 2
9 30.2397 30.7554 21.7653 1
10 26.7538 9.01722 28.9649 2
11 24.9958 19.9075 9.27642 3
ITEM: TIMESTEP
200
ITEM: NUMBER OF ATOMS
6
ITEM: BOX BOUNDS ff ff ff
0.0000000000000000e+00 3.1305960336348480e+01
0.0000000000000000e+00 3.1305960336348480e+01
0.0000000000000000e+00 3.1305960336348480e+01
ITEM: ATOMS id x y z type
8 12.8912 26.8883 14.3937 3
6 16.424 4.33061 17.6744 1
7 25.7075 31.0087 21.6696 2
9 30.2292 30.7534 21.7393 1
10 26.7648 9.01672 28.9605 2
11 24.9842 19.922 9.2735 3
ITEM: TIMESTEP
210
ITEM: NUMBER OF ATOMS
9
ITEM: BOX BOUNDS ff ff ff
0.0000000000000000e+00 3.1305960336348480e+01
0.0000000000000000e+00 3.1305960336348480e+01
0.0000000000000000e+00 3.1305960336348480e+01
ITEM: ATOMS id x y z type
11 24.9807 19.9425 9.27523 3
8 12.9093 26.9495 14.3224 3
6 16.4403 4.37556 17.6318 1
7 25.7352 30.9912 21.6717 2
9 30.2192 30.7436 21.7186 1
10 26.7796 9.02243 28.9566 2
12 16.809 15.4243 25.4276 1
13 0.0662757 22.7657 5.14532 2
14 1.7293 2.61045 15.713 3
ITEM: TIMESTEP
220
ITEM: NUMBER OF ATOMS
9
ITEM: BOX BOUNDS ff ff ff
0.0000000000000000e+00 3.1305960336348480e+01
0.0000000000000000e+00 3.1305960336348480e+01
0.0000000000000000e+00 3.1305960336348480e+01
ITEM: ATOMS id x y z type
11 24.9814 19.958 9.28226 3
8 12.9351 27.0048 14.2523 3
6 16.4544 4.41666 17.5923 1
7 25.765 30.9698 21.6702 2
9 30.2096 30.7362 21.7077 1
10 26.7847 9.02919 28.9562 2
12 16.8052 15.4181 25.4392 1
13 0.0602029 22.7445 5.13598 2
14 1.73678 2.61122 15.7107 3
ITEM: TIMESTEP
230
ITEM: NUMBER OF ATOMS
9
ITEM: BOX BOUNDS ff ff ff
0.0000000000000000e+00 3.1305960336348480e+01
0.0000000000000000e+00 3.1305960336348480e+01
0.0000000000000000e+00 3.1305960336348480e+01
ITEM: ATOMS id x y z type
11 24.987 19.9856 9.30158 3
8 12.9604 27.0577 14.1786 3
6 16.4675 4.45777 17.5624 1
7 25.8104 30.9529 21.6599 2
9 30.1974 30.7274 21.6956 1
10 26.784 9.0294 28.9644 2
12 16.7983 15.4032 25.45 1
13 0.0572063 22.7118 5.13569 2
14 1.75171 2.61927 15.704 3
ITEM: TIMESTEP
240
ITEM: NUMBER OF ATOMS
9
ITEM: BOX BOUNDS ff ff ff
0.0000000000000000e+00 3.1305960336348480e+01
0.0000000000000000e+00 3.1305960336348480e+01
0.0000000000000000e+00 3.1305960336348480e+01
ITEM: ATOMS id x y z type
11 24.989 20.0117 9.33104 3
8 12.9834 27.1048 14.1176 3
6 16.4759 4.51737 17.5365 1
7 25.8603 30.9297 21.6399 2
9 30.169 30.7106 21.68 1
10 26.7949 9.02976 28.9845 2
12 16.791 15.3866 25.4558 1
13 0.048955 22.6752 5.14135 2
14 1.76909 2.63289 15.7075 3
ITEM: TIMESTEP
250
ITEM: NUMBER OF ATOMS
9
ITEM: BOX BOUNDS ff ff ff
0.0000000000000000e+00 3.1305960336348480e+01
0.0000000000000000e+00 3.1305960336348480e+01
0.0000000000000000e+00 3.1305960336348480e+01
ITEM: ATOMS id x y z type
11 24.9868 20.0239 9.36315 3
8 12.9975 27.1338 14.0538 3
6 16.4733 4.58162 17.5157 1
7 25.9113 30.9039 21.622 2
9 30.1402 30.7007 21.6691 1
10 26.8072 9.03447 29.0078 2
12 16.7858 15.3679 25.4615 1
13 0.0343124 22.6409 5.14948 2
14 1.78957 2.64742 15.7241 3
ITEM: TIMESTEP
260
ITEM: NUMBER OF ATOMS
9
ITEM: BOX BOUNDS ff ff ff
0.0000000000000000e+00 3.1305960336348480e+01
0.0000000000000000e+00 3.1305960336348480e+01
0.0000000000000000e+00 3.1305960336348480e+01
ITEM: ATOMS id x y z type
11 24.98 20.0347 9.3943 3
8 13.0031 27.1548 13.9967 3
6 16.4599 4.65141 17.4992 1
7 25.9657 30.8801 21.6162 2
9 30.11 30.6953 21.6483 1
10 26.8276 9.04056 29.042 2
12 16.7772 15.3475 25.4744 1
13 0.0201515 22.6107 5.16466 2
14 1.8138 2.64944 15.7416 3
ITEM: TIMESTEP
270
ITEM: NUMBER OF ATOMS
9
ITEM: BOX BOUNDS ff ff ff
0.0000000000000000e+00 3.1305960336348480e+01
0.0000000000000000e+00 3.1305960336348480e+01
0.0000000000000000e+00 3.1305960336348480e+01
ITEM: ATOMS id x y z type
11 24.9751 20.045 9.42453 3
8 13.0133 27.18 13.9404 3
6 16.4431 4.7209 17.4812 1
7 26.028 30.856 21.612 2
9 30.0775 30.6943 21.6244 1
10 26.8482 9.04826 29.0831 2
12 16.7619 15.3411 25.4841 1
13 0.00389262 22.5756 5.17318 2
14 1.82717 2.6428 15.7535 3
ITEM: TIMESTEP
280
ITEM: NUMBER OF ATOMS
9
ITEM: BOX BOUNDS ff ff ff
0.0000000000000000e+00 3.1305960336348480e+01
0.0000000000000000e+00 3.1305960336348480e+01
0.0000000000000000e+00 3.1305960336348480e+01
ITEM: ATOMS id x y z type
11 24.97 20.0559 9.44746 3
8 13.0186 27.2093 13.8826 3
6 16.4311 4.78692 17.4709 1
7 26.0892 30.8257 21.6033 2
9 30.0394 30.7024 21.608 1
10 26.8712 9.05208 29.121 2
12 16.7401 15.3497 25.4891 1
13 0.0324976 22.5385 5.17755 2
14 1.83868 2.64284 15.7597 3
ITEM: TIMESTEP
290
ITEM: NUMBER OF ATOMS
9
ITEM: BOX BOUNDS ff ff ff
0.0000000000000000e+00 3.1305960336348480e+01
0.0000000000000000e+00 3.1305960336348480e+01
0.0000000000000000e+00 3.1305960336348480e+01
ITEM: ATOMS id x y z type
11 24.9605 20.0726 9.47874 3
8 13.0281 27.2401 13.8384 3
6 16.4198 4.85219 17.4602 1
7 26.1551 30.8017 21.5916 2
9 30.0028 30.7169 21.6052 1
10 26.8973 9.04456 29.1663 2
12 16.7211 15.3692 25.4807 1
13 0.0620738 22.5045 5.18687 2
14 1.84533 2.64775 15.7624 3
ITEM: TIMESTEP
300
ITEM: NUMBER OF ATOMS
9
ITEM: BOX BOUNDS ff ff ff
0.0000000000000000e+00 3.1305960336348480e+01
0.0000000000000000e+00 3.1305960336348480e+01
0.0000000000000000e+00 3.1305960336348480e+01
ITEM: ATOMS id x y z type
11 24.9441 20.0929 9.50762 3
8 13.0394 27.2722 13.8001 3
6 16.402 4.91403 17.4366 1
7 26.2212 30.7808 21.5778 2
9 29.9586 30.7305 21.6126 1
10 26.9343 9.02615 29.2149 2
12 16.7069 15.3955 25.4701 1
13 0.0943876 22.4643 5.19774 2
14 1.85644 2.65242 15.7548 3
ITEM: TIMESTEP
310
ITEM: NUMBER OF ATOMS
12
ITEM: BOX BOUNDS ff ff ff
0.0000000000000000e+00 3.1305960336348480e+01
0.0000000000000000e+00 3.1305960336348480e+01
0.0000000000000000e+00 3.1305960336348480e+01
ITEM: ATOMS id x y z type
13 0.120278 22.4294 5.20016 2
11 24.9291 20.1193 9.53496 3
8 13.0491 27.3034 13.7689 3
14 1.87493 2.66719 15.7503 3
6 16.3845 4.96861 17.4118 1
7 26.2846 30.7658 21.5692 2
9 29.9073 30.7393 21.6255 1
12 16.7065 15.4184 25.4605 1
10 26.9866 9.00407 29.2716 2
15 22.7956 4.01291 3.87269 1
16 25.087 6.84795 11.83 2
17 25.0018 16.6713 23.4448 3
ITEM: TIMESTEP
320
ITEM: NUMBER OF ATOMS
12
ITEM: BOX BOUNDS ff ff ff
0.0000000000000000e+00 3.1305960336348480e+01
0.0000000000000000e+00 3.1305960336348480e+01
0.0000000000000000e+00 3.1305960336348480e+01
ITEM: ATOMS id x y z type
13 0.143458 22.4003 5.19383 2
11 24.9195 20.1448 9.55599 3
8 13.056 27.3356 13.7428 3
14 1.89087 2.68648 15.7481 3
6 16.3645 5.02155 17.3938 1
7 26.3451 30.7529 21.5585 2
9 29.836 30.7493 21.645 1
12 16.7218 15.4263 25.4441 1
10 27.0412 8.98886 29.3311 2
15 22.7839 4.01011 3.87203 1
16 25.0909 6.85191 11.8342 2
17 25.0015 16.6567 23.4439 3
ITEM: TIMESTEP
330
ITEM: NUMBER OF ATOMS
12
ITEM: BOX BOUNDS ff ff ff
0.0000000000000000e+00 3.1305960336348480e+01
0.0000000000000000e+00 3.1305960336348480e+01
0.0000000000000000e+00 3.1305960336348480e+01
ITEM: ATOMS id x y z type
13 0.169378 22.3706 5.18719 2
11 24.9064 20.1649 9.56344 3
8 13.0664 27.3671 13.7154 3
14 1.91649 2.70647 15.7473 3
6 16.3549 5.07621 17.3798 1
7 26.3948 30.737 21.5576 2
9 29.7543 30.7702 21.6681 1
12 16.7354 15.4249 25.4193 1
10 27.0851 8.97082 29.3945 2
15 22.7693 4.00185 3.87553 1
16 25.0924 6.85935 11.8421 2
17 25.0089 16.6454 23.4441 3
ITEM: TIMESTEP
340
ITEM: NUMBER OF ATOMS
12
ITEM: BOX BOUNDS ff ff ff
0.0000000000000000e+00 3.1305960336348480e+01
0.0000000000000000e+00 3.1305960336348480e+01
0.0000000000000000e+00 3.1305960336348480e+01
ITEM: ATOMS id x y z type
13 0.196198 22.3419 5.17989 2
11 24.8819 20.1757 9.57055 3
8 13.0759 27.401 13.6829 3
14 1.94495 2.7204 15.7499 3
6 16.3497 5.12709 17.356 1
7 26.441 30.7203 21.5582 2
9 29.6679 30.7943 21.6972 1
12 16.7426 15.4193 25.3949 1
10 27.1282 8.96113 29.4573 2
15 22.7517 3.99563 3.89293 1
16 25.0993 6.86524 11.8419 2
17 25.0122 16.6258 23.445 3
ITEM: TIMESTEP
350
ITEM: NUMBER OF ATOMS
12
ITEM: BOX BOUNDS ff ff ff
0.0000000000000000e+00 3.1305960336348480e+01
0.0000000000000000e+00 3.1305960336348480e+01
0.0000000000000000e+00 3.1305960336348480e+01
ITEM: ATOMS id x y z type
13 0.21589 22.3057 5.17097 2
11 24.858 20.1931 9.57272 3
8 13.0854 27.4445 13.6525 3
14 1.96803 2.73808 15.7537 3
6 16.3506 5.18743 17.3321 1
7 26.4798 30.7041 21.5583 2
9 29.5844 30.816 21.7256 1
12 16.7447 15.4127 25.3609 1
10 27.1725 8.96032 29.5248 2
15 22.7359 3.99965 3.91752 1
16 25.107 6.87112 11.8445 2
17 25.0134 16.6053 23.4544 3
ITEM: TIMESTEP
360
ITEM: NUMBER OF ATOMS
12
ITEM: BOX BOUNDS ff ff ff
0.0000000000000000e+00 3.1305960336348480e+01
0.0000000000000000e+00 3.1305960336348480e+01
0.0000000000000000e+00 3.1305960336348480e+01
ITEM: ATOMS id x y z type
13 0.227867 22.274 5.1558 2
11 24.8343 20.2104 9.56769 3
8 13.0922 27.4935 13.6307 3
14 1.99756 2.75101 15.7565 3
6 16.3549 5.24664 17.3146 1
7 26.5213 30.684 21.5463 2
9 29.4939 30.8372 21.7492 1
12 16.7475 15.4203 25.3186 1
10 27.2089 8.96298 29.5988 2
15 22.7144 3.99894 3.94676 1
16 25.115 6.86757 11.846 2
17 25.017 16.5862 23.4686 3
ITEM: TIMESTEP
370
ITEM: NUMBER OF ATOMS
12
ITEM: BOX BOUNDS ff ff ff
0.0000000000000000e+00 3.1305960336348480e+01
0.0000000000000000e+00 3.1305960336348480e+01
0.0000000000000000e+00 3.1305960336348480e+01
ITEM: ATOMS id x y z type
13 0.233973 22.2379 5.14092 2
11 24.8165 20.2308 9.5665 3
8 13.1074 27.5425 13.6039 3
14 2.03419 2.761 15.7561 3
6 16.3614 5.30275 17.2996 1
7 26.5438 30.6753 21.5294 2
9 29.4065 30.852 21.7714 1
12 16.7457 15.4229 25.2691 1
10 27.2494 8.96254 29.6755 2
15 22.6846 3.98904 3.96973 1
16 25.1146 6.85361 11.8495 2
17 25.0196 16.5602 23.4886 3
ITEM: TIMESTEP
380
ITEM: NUMBER OF ATOMS
12
ITEM: BOX BOUNDS ff ff ff
0.0000000000000000e+00 3.1305960336348480e+01
0.0000000000000000e+00 3.1305960336348480e+01
0.0000000000000000e+00 3.1305960336348480e+01
ITEM: ATOMS id x y z type
13 0.232886 22.2023 5.13012 2
11 24.7967 20.2417 9.56947 3
8 13.1298 27.5965 13.5804 3
14 2.07339 2.77222 15.7582 3
6 16.3689 5.36207 17.2818 1
7 26.5557 30.6711 21.5094 2
9 29.3261 30.8771 21.7885 1
12 16.7482 15.4247 25.2058 1
10 27.2859 8.96698 29.7508 2
15 22.6604 3.99427 3.97569 1
16 25.1221 6.83174 11.8452 2
17 25.0308 16.5279 23.5063 3
ITEM: TIMESTEP
390
ITEM: NUMBER OF ATOMS
12
ITEM: BOX BOUNDS ff ff ff
0.0000000000000000e+00 3.1305960336348480e+01
0.0000000000000000e+00 3.1305960336348480e+01
0.0000000000000000e+00 3.1305960336348480e+01
ITEM: ATOMS id x y z type
13 0.231894 22.1674 5.1247 2
11 24.7765 20.2523 9.57977 3
8 13.1511 27.6438 13.5583 3
14 2.10953 2.78628 15.7604 3
6 16.3919 5.41864 17.2582 1
7 26.5657 30.6539 21.4864 2
9 29.2532 30.9088 21.8089 1
12 16.753 15.4279 25.1384 1
10 27.3239 8.97523 29.8238 2
15 22.6375 4.00176 3.97408 1
16 25.1272 6.80855 11.8374 2
17 25.0404 16.4981 23.521 3
ITEM: TIMESTEP
400
ITEM: NUMBER OF ATOMS
12
ITEM: BOX BOUNDS ff ff ff
0.0000000000000000e+00 3.1305960336348480e+01
0.0000000000000000e+00 3.1305960336348480e+01
0.0000000000000000e+00 3.1305960336348480e+01
ITEM: ATOMS id x y z type
13 0.227555 22.1337 5.11944 2
11 24.7504 20.2617 9.58192 3
8 13.1611 27.6937 13.5326 3
14 2.14166 2.79811 15.7673 3
6 16.4085 5.46316 17.233 1
7 26.569 30.6306 21.466 2
9 29.1827 30.9364 21.8286 1
12 16.758 15.4281 25.0679 1
10 27.3592 8.98052 29.9006 2
15 22.6178 4.0105 3.97987 1
16 25.1163 6.78878 11.8174 2
17 25.0521 16.469 23.5417 3
ITEM: TIMESTEP
410
ITEM: NUMBER OF ATOMS
15
ITEM: BOX BOUNDS ff ff ff
0.0000000000000000e+00 3.1305960336348480e+01
0.0000000000000000e+00 3.1305960336348480e+01
0.0000000000000000e+00 3.1305960336348480e+01
ITEM: ATOMS id x y z type
15 22.594 4.01253 3.99339 1
13 0.231881 22.096 5.12143 2
11 24.7236 20.2764 9.58706 3
16 25.099 6.77088 11.7993 2
8 13.171 27.7495 13.5011 3
14 2.17824 2.81387 15.7757 3
6 16.4217 5.49734 17.2097 1
7 26.5816 30.6074 21.4507 2
9 29.1182 30.963 21.8541 1
12 16.7699 15.4195 24.9987 1
17 25.0714 16.4408 23.5594 3
10 27.3962 8.985 29.9894 2
18 16.4049 3.57691 18.1503 1
19 28.4739 2.01351 1.53646 2
20 20.8484 19.4992 30.9315 3
ITEM: TIMESTEP
420
ITEM: NUMBER OF ATOMS
15
ITEM: BOX BOUNDS ff ff ff
0.0000000000000000e+00 3.1305960336348480e+01
0.0000000000000000e+00 3.1305960336348480e+01
0.0000000000000000e+00 3.1305960336348480e+01
ITEM: ATOMS id x y z type
15 22.5736 4.00581 4.01282 1
13 0.244644 22.0634 5.12956 2
11 24.712 20.2966 9.60053 3
16 25.0794 6.74853 11.7724 2
8 13.1874 27.8033 13.4643 3
14 2.22484 2.82679 15.7786 3
6 16.4289 5.53155 17.1846 1
7 26.5986 30.5807 21.4379 2
9 29.0621 30.9785 21.8816 1
12 16.7954 15.4109 24.9301 1
17 25.0899 16.4144 23.5748 3
10 27.4238 8.99392 30.0808 2
18 16.4017 3.5604 18.1505 1
19 28.4678 2.01348 1.53506 2
20 20.8418 19.5106 30.9414 3
ITEM: TIMESTEP
430
ITEM: NUMBER OF ATOMS
15
ITEM: BOX BOUNDS ff ff ff
0.0000000000000000e+00 3.1305960336348480e+01
0.0000000000000000e+00 3.1305960336348480e+01
0.0000000000000000e+00 3.1305960336348480e+01
ITEM: ATOMS id x y z type
15 22.5606 3.99614 4.03045 1
13 0.262948 22.0276 5.13808 2
11 24.7137 20.3252 9.61127 3
16 25.0604 6.7259 11.7375 2
8 13.2146 27.8605 13.4256 3
14 2.27847 2.84117 15.7799 3
6 16.4304 5.56942 17.1539 1
7 26.6146 30.5361 21.424 2
9 29.0109 31.0011 21.9143 1
12 16.8099 15.3958 24.864 1
17 25.1112 16.3794 23.5867 3
10 27.45 9.00686 30.168 2
18 16.3974 3.53995 18.1493 1
19 28.4578 2.01515 1.53666 2
20 20.8465 19.5298 30.9598 3
ITEM: TIMESTEP
440
ITEM: NUMBER OF ATOMS
15
ITEM: BOX BOUNDS ff ff ff
0.0000000000000000e+00 3.1305960336348480e+01
0.0000000000000000e+00 3.1305960336348480e+01
0.0000000000000000e+00 3.1305960336348480e+01
ITEM: ATOMS id x y z type
15 22.5458 3.98228 4.04715 1
13 0.289111 22.0008 5.15761 2
11 24.7148 20.3474 9.62231 3
16 25.0391 6.69398 11.7038 2
8 13.2399 27.9324 13.391 3
14 2.33975 2.8623 15.7827 3
6 16.4223 5.60596 17.1298 1
7 26.6292 30.4858 21.4053 2
9 28.962 31.0257 21.9539 1
12 16.8224 15.3857 24.8099 1
17 25.1255 16.3475 23.5877 3
10 27.4827 9.02396 30.2453 2
18 16.3966 3.51006 18.1599 1
19 28.4493 2.01776 1.54137 2
20 20.859 19.5481 30.9724 3
ITEM: TIMESTEP
450
ITEM: NUMBER OF ATOMS
15
ITEM: BOX BOUNDS ff ff ff
0.0000000000000000e+00 3.1305960336348480e+01
0.0000000000000000e+00 3.1305960336348480e+01
0.0000000000000000e+00 3.1305960336348480e+01
ITEM: ATOMS id x y z type
15 22.5267 3.97901 4.06451 1
13 0.313772 21.99 5.1698 2
11 24.7214 20.3679 9.62997 3
16 25.0122 6.6575 11.6763 2
8 13.2626 28.0162 13.3449 3
14 2.41054 2.87221 15.7945 3
6 16.4035 5.64571 17.1031 1
7 26.6458 30.4359 21.388 2
9 28.9224 31.0526 21.9915 1
12 16.8382 15.3765 24.7606 1
17 25.1295 16.328 23.5977 3
10 27.5181 9.04931 30.3207 2
18 16.3918 3.47942 18.1774 1
19 28.4479 2.00936 1.5518 2
20 20.8716 19.5752 30.9785 3
ITEM: TIMESTEP
460
ITEM: NUMBER OF ATOMS
15
ITEM: BOX BOUNDS ff ff ff
0.0000000000000000e+00 3.1305960336348480e+01
0.0000000000000000e+00 3.1305960336348480e+01
0.0000000000000000e+00 3.1305960336348480e+01
ITEM: ATOMS id x y z type
15 22.5195 3.97523 4.07617 1
13 0.34696 21.9838 5.18354 2
11 24.7377 20.3829 9.64333 3
16 24.9807 6.6061 11.6514 2
8 13.2795 28.0998 13.2943 3
14 2.47961 2.88247 15.8191 3
6 16.3798 5.67641 17.0715 1
7 26.6743 30.3826 21.3607 2
9 28.8823 31.0701 22.0265 1
12 16.8578 15.3674 24.7052 1
17 25.1306 16.326 23.6079 3
10 27.5574 9.07903 30.4 2
18 16.3828 3.4495 18.1889 1
19 28.4515 1.9974 1.57236 2
20 20.888 19.6051 30.9831 3
ITEM: TIMESTEP
470
ITEM: NUMBER OF ATOMS
15
ITEM: BOX BOUNDS ff ff ff
0.0000000000000000e+00 3.1305960336348480e+01
0.0000000000000000e+00 3.1305960336348480e+01
0.0000000000000000e+00 3.1305960336348480e+01
ITEM: ATOMS id x y z type
15 22.5006 3.96663 4.08165 1
13 0.384947 21.9835 5.19822 2
11 24.7467 20.4003 9.65203 3
16 24.9512 6.5461 11.6211 2
8 13.296 28.1865 13.2458 3
14 2.54704 2.89672 15.8427 3
6 16.3621 5.70061 17.0307 1
7 26.7008 30.329 21.3329 2
9 28.8363 31.0806 22.0582 1
12 16.8866 15.3524 24.6497 1
17 25.1281 16.3263 23.6139 3
10 27.5936 9.10903 30.482 2
18 16.3704 3.42176 18.2099 1
19 28.4652 1.98548 1.59429 2
20 20.9087 19.6341 30.9851 3
ITEM: TIMESTEP
480
ITEM: NUMBER OF ATOMS
15
ITEM: BOX BOUNDS ff ff ff
0.0000000000000000e+00 3.1305960336348480e+01
0.0000000000000000e+00 3.1305960336348480e+01
0.0000000000000000e+00 3.1305960336348480e+01
ITEM: ATOMS id x y z type
15 22.4795 3.94973 4.082 1
13 0.430459 21.9793 5.22354 2
11 24.755 20.4234 9.66755 3
16 24.9242 6.49344 11.5873 2
8 13.3204 28.2729 13.1976 3
14 2.62124 2.90459 15.8604 3
6 16.3477 5.71882 16.9804 1
7 26.7249 30.2843 21.3108 2
9 28.7908 31.0834 22.0931 1
12 16.9091 15.344 24.5942 1
17 25.1326 16.3223 23.6154 3
10 27.6265 9.13914 30.5646 2
18 16.3696 3.39029 18.2385 1
19 28.4832 1.97783 1.62486 2
20 20.9267 19.6733 30.9855 3
ITEM: TIMESTEP
490
ITEM: NUMBER OF ATOMS
15
ITEM: BOX BOUNDS ff ff ff
0.0000000000000000e+00 3.1305960336348480e+01
0.0000000000000000e+00 3.1305960336348480e+01
0.0000000000000000e+00 3.1305960336348480e+01
ITEM: ATOMS id x y z type
15 22.4506 3.92634 4.08378 1
13 0.478955 21.9737 5.24962 2
11 24.7548 20.4489 9.67473 3
16 24.9071 6.4503 11.5688 2
8 13.3502 28.3519 13.1517 3
14 2.70197 2.91262 15.8776 3
6 16.3293 5.73953 16.9203 1
7 26.7424 30.2505 21.2872 2
9 28.75 31.0753 22.1242 1
12 16.9293 15.3337 24.5439 1
17 25.1291 16.3106 23.6215 3
10 27.6528 9.17848 30.6557 2
18 16.3587 3.36195 18.2668 1
19 28.5012 1.96573 1.65613 2
20 20.9433 19.7258 30.9836 3
ITEM: TIMESTEP
500
ITEM: NUMBER OF ATOMS
15
ITEM: BOX BOUNDS ff ff ff
0.0000000000000000e+00 3.1305960336348480e+01
0.0000000000000000e+00 3.1305960336348480e+01
0.0000000000000000e+00 3.1305960336348480e+01
ITEM: ATOMS id x y z type
15 22.4143 3.89352 4.09443 1
13 0.530757 21.9611 5.2608 2
11 24.7529 20.4721 9.67614 3
16 24.8973 6.40676 11.5542 2
8 13.378 28.435 13.1191 3
14 2.79557 2.9255 15.8907 3
6 16.3088 5.7666 16.8485 1
7 26.7538 30.2142 21.2681 2
9 28.7006 31.0769 22.1624 1
12 16.9443 15.3161 24.4946 1
17 25.1224 16.307 23.6299 3
10 27.6777 9.21801 30.7568 2
18 16.3513 3.33787 18.3029 1
19 28.5217 1.94475 1.67303 2
20 20.9553 19.7818 30.9888 3
ITEM: TIMESTEP
510
ITEM: NUMBER OF ATOMS
18
ITEM: BOX BOUNDS ff ff ff
0.0000000000000000e+00 3.1305960336348480e+01
0.0000000000000000e+00 3.1305960336348480e+01
0.0000000000000000e+00 3.1305960336348480e+01
ITEM: ATOMS id x y z type
19 28.5396 1.92359 1.68043 2
15 22.3733 3.86404 4.11043 1
13 0.592813 21.9458 5.26575 2
11 24.7527 20.5017 9.67492 3
16 24.8886 6.36092 11.5493 2
8 13.4089 28.5179 13.0897 3
14 2.89381 2.94129 15.8974 3
6 16.2933 5.78713 16.7703 1
18 16.3501 3.31964 18.3448 1
7 26.7613 30.1679 21.2436 2
9 28.6445 31.08 22.2046 1
12 16.9531 15.311 24.4514 1
17 25.1089 16.3013 23.6439 3
10 27.6997 9.25737 30.8575 2
20 20.9605 19.8358 30.991 3
21 12.7225 26.5372 15.1221 1
22 29.615 31.227 20.2324 2
23 19.8692 23.5623 27.6343 3
ITEM: TIMESTEP
520
ITEM: NUMBER OF ATOMS
18
ITEM: BOX BOUNDS ff ff ff
0.0000000000000000e+00 3.1305960336348480e+01
0.0000000000000000e+00 3.1305960336348480e+01
0.0000000000000000e+00 3.1305960336348480e+01
ITEM: ATOMS id x y z type
19 28.5532 1.90086 1.69714 2
15 22.3313 3.83752 4.12119 1
13 0.661259 21.9385 5.26993 2
11 24.742 20.5269 9.68128 3
16 24.8803 6.31092 11.5403 2
8 13.4523 28.611 13.0705 3
14 2.9945 2.95643 15.9026 3
6 16.289 5.80901 16.6846 1
18 16.3537 3.30339 18.3826 1
7 26.7591 30.1246 21.2086 2
9 28.5844 31.0807 22.2561 1
12 16.9601 15.316 24.4203 1
17 25.0874 16.2953 23.6674 3
10 27.7225 9.2914 30.9574 2
20 20.9617 19.8937 30.9912 3
21 12.7094 26.5548 15.126 1
22 29.6171 31.2319 20.2348 2
23 19.8683 23.5518 27.6322 3
ITEM: TIMESTEP
530
ITEM: NUMBER OF ATOMS
18
ITEM: BOX BOUNDS ff ff ff
0.0000000000000000e+00 3.1305960336348480e+01
0.0000000000000000e+00 3.1305960336348480e+01
0.0000000000000000e+00 3.1305960336348480e+01
ITEM: ATOMS id x y z type
19 28.5657 1.87623 1.72341 2
15 22.2931 3.81058 4.13513 1
13 0.73139 21.9357 5.27312 2
11 24.7306 20.5506 9.68691 3
16 24.8584 6.25868 11.5333 2
8 13.5125 28.6987 13.0472 3
14 3.09206 2.98062 15.8934 3
6 16.2883 5.83176 16.6032 1
18 16.3569 3.28883 18.4178 1
7 26.7647 30.0779 21.1658 2
9 28.5218 31.0882 22.3048 1
12 16.9693 15.3245 24.3991 1
17 25.0748 16.2931 23.7004 3
10 27.7431 9.31776 31.0671 2
20 20.9539 19.9381 30.9941 3
21 12.7022 26.5858 15.1346 1
22 29.6146 31.2423 20.2425 2
23 19.8602 23.5416 27.6303 3
ITEM: TIMESTEP
540
ITEM: NUMBER OF ATOMS
18
ITEM: BOX BOUNDS ff ff ff
0.0000000000000000e+00 3.1305960336348480e+01
0.0000000000000000e+00 3.1305960336348480e+01
0.0000000000000000e+00 3.1305960336348480e+01
ITEM: ATOMS id x y z type
19 28.5705 1.84772 1.74802 2
15 22.2552 3.78381 4.14912 1
13 0.802507 21.9328 5.2785 2
11 24.7269 20.573 9.68216 3
16 24.8281 6.21225 11.5312 2
8 13.5679 28.7839 13.0217 3
14 3.19225 3.0158 15.8867 3
6 16.2906 5.84818 16.5161 1
18 16.3618 3.27529 18.4658 1
7 26.7747 30.0207 21.1268 2
9 28.4626 31.1019 22.3601 1
12 16.9745 15.3294 24.386 1
17 25.0565 16.2882 23.7317 3
10 27.7699 9.337 31.1735 2
20 20.942 19.9791 30.9936 3
21 12.6917 26.6154 15.1386 1
22 29.6153 31.2639 20.2434 2
23 19.8583 23.5335 27.615 3
ITEM: TIMESTEP
550
ITEM: NUMBER OF ATOMS
18
ITEM: BOX BOUNDS ff ff ff
0.0000000000000000e+00 3.1305960336348480e+01
0.0000000000000000e+00 3.1305960336348480e+01
0.0000000000000000e+00 3.1305960336348480e+01
ITEM: ATOMS id x y z type
19 28.5662 1.8045 1.77113 2
15 22.2122 3.76127 4.15764 1
13 0.867527 21.9281 5.28649 2
11 24.7167 20.6057 9.66802 3
16 24.7891 6.17324 11.5256 2
8 13.616 28.8644 12.985 3
14 3.29127 3.0552 15.8825 3
6 16.2999 5.86344 16.4199 1
18 16.3737 3.26014 18.5159 1
7 26.7931 29.9664 21.093 2
9 28.4142 31.1292 22.4179 1
12 16.9868 15.3231 24.3771 1
17 25.0346 16.2777 23.7601 3
10 27.8066 9.34505 31.2716 2
20 20.9244 20.0221 30.9954 3
21 12.6912 26.6364 15.1455 1
22 29.6166 31.2922 20.2497 2
23 19.8602 23.532 27.5916 3
ITEM: TIMESTEP
560
ITEM: NUMBER OF ATOMS
18
ITEM: BOX BOUNDS ff ff ff
0.0000000000000000e+00 3.1305960336348480e+01
0.0000000000000000e+00 3.1305960336348480e+01
0.0000000000000000e+00 3.1305960336348480e+01
ITEM: ATOMS id x y z type
19 28.5609 1.77419 1.78786 2
15 22.1606 3.74246 4.17375 1
13 0.935815 21.9152 5.30252 2
11 24.6984 20.6381 9.65317 3
16 24.7418 6.14176 11.5153 2
8 13.668 28.9381 12.9533 3
14 3.37787 3.08702 15.8802 3
6 16.311 5.89231 16.3257 1
18 16.3889 3.25835 18.5719 1
7 26.8098 29.9027 21.0568 2
9 28.3773 31.1632 22.4835 1
12 17.0062 15.3254 24.3653 1
17 25.0053 16.264 23.7932 3
10 27.8553 9.35044 31.2417 2
20 20.903 20.064 30.9949 3
21 12.6943 26.6689 15.155 1
22 29.6281 31.2936 20.2661 2
23 19.8575 23.5232 27.5711 3
ITEM: TIMESTEP
570
ITEM: NUMBER OF ATOMS
18
ITEM: BOX BOUNDS ff ff ff
0.0000000000000000e+00 3.1305960336348480e+01
0.0000000000000000e+00 3.1305960336348480e+01
0.0000000000000000e+00 3.1305960336348480e+01
ITEM: ATOMS id x y z type
19 28.5577 1.74419 1.80722 2
15 22.1039 3.72882 4.19291 1
13 0.999698 21.9049 5.31367 2
11 24.669 20.6559 9.64575 3
16 24.6804 6.11135 11.4975 2
8 13.7191 29.0056 12.9251 3
14 3.46546 3.11456 15.8785 3
6 16.3228 5.92824 16.2252 1
18 16.4152 3.26608 18.6273 1
7 26.8219 29.8422 21.0177 2
9 28.3549 31.1928 22.5484 1
12 17.031 15.3375 24.3501 1
17 24.9816 16.2415 23.8329 3
10 27.911 9.35967 31.144 2
20 20.8786 20.1041 30.991 3
21 12.7002 26.7072 15.1583 1
22 29.6484 31.2698 20.2896 2
23 19.8415 23.5086 27.5572 3
ITEM: TIMESTEP
580
ITEM: NUMBER OF ATOMS
18
ITEM: BOX BOUNDS ff ff ff
0.0000000000000000e+00 3.1305960336348480e+01