ITEM: TIMESTEP
0
ITEM: NUMBER OF ATOMS
40
ITEM: BOX BOUNDS ff ff ff
0.0000000000000000e+00 3.1305960336348480e+01
0.0000000000000000e+00 3.1305960336348480e+01
0.0000000000000000e+00 3.1305960336348480e+01
ITEM: ATOMS id x y z type
35 12.6198 3.00282 3.12268 2
28 27.1359 8.33012 4.00359 2
4 23.5901 19.5936 2.76448 1
33 17.5109 29.8738 3.75304 2
22 5.53978 3.15384 5.53221 2
3 17.1819 10.0755 5.29699 1
30 5.07132 18.9158 6.35082 2
2 15.2549 23.8407 5.58904 1
39 2.92044 27.3425 5.26067 2
10 4.58022 29.7548 7.6232 1
40 8.07645 29.5312 5.81899 2
17 26.2024 2.90813 8.3727 1
25 20.9055 11.3238 9.81426 2
26 28.4403 16.3604 8.24734 2
6 10.7211 23.2783 8.18102 1
31 16.2506 10.795 12.922 2
18 30.9293 23.8838 10.5503 1
32 10.1274 1.34378 13.3844 2
14 15.3682 18.4433 15.4665 1
24 25.9612 18.5325 13.2672 2
37 12.8738 13.7941 17.433 2
15 11.397 18.9798 16.5664 1
34 27.0587 24.769 16.7704 2
9 19.7032 28.5241 16.593 1
19 2.29044 20.3359 18.3568 1
16 27.8687 21.5095 19.9005 1
7 2.55888 24.0166 20.0139 1
20 1.80282 27.077 19.194 1
29 11.8913 30.4726 19.0834 2
5 4.54242 20.5616 22.9134 1
11 19.0601 20.5336 22.4284 1
27 21.5598 20.8669 21.3013 2
38 3.41566 23.1041 22.2591 2
12 30.2885 23.5212 20.8864 1
8 22.6279 1.55121 24.6145 1
36 14.0285 11.0508 24.3701 2
1 12.0642 24.7713 23.9698 1
23 1.07703 6.87687 29.2008 2
21 29.1388 16.5274 29.2946 2
13 3.55903 22.175 28.8221 1
ITEM: TIMESTEP
10
ITEM: NUMBER OF ATOMS
40
ITEM: BOX BOUNDS ff ff ff
0.0000000000000000e+00 3.1305960336348480e+01
0.0000000000000000e+00 3.1305960336348480e+01
0.0000000000000000e+00 3.1305960336348480e+01
ITEM: ATOMS id x y z type
35 12.2196 3.4182 3.2313 2
28 26.206 8.19306 3.03481 2
4 23.4952 19.2357 2.11428 1
33 17.2363 30.0979 3.85317 2
22 5.38262 3.79782 5.19854 2
3 17.6864 10.1136 6.55853 1
30 4.46968 18.8963 5.92074 2
2 15.8012 22.7155 5.3602 1
39 3.54393 27.9001 5.94883 2
10 4.24144 29.6848 7.72876 1
40 6.9482 29.6643 5.41917 2
17 26.5577 3.21308 8.46378 1
25 21.5706 10.9003 10.1065 2
26 28.3755 15.8172 7.53576 2
6 10.5565 23.0918 7.82494 1
31 16.9426 12.091 13.6409 2
18 31.1691 23.5754 11.3973 1
32 9.94976 0.506437 13.7072 2
14 16.2088 18.8991 15.7272 1
24 26.7581 18.2643 13.4276 2
37 12.6499 14.6439 17.2951 2
15 11.5886 19.469 16.4132 1
34 27.0302 25.5825 15.9821 2
9 19.7149 28.7134 16.8719 1
19 2.72656 20.802 18.5807 1
16 27.5321 21.1482 19.828 1
7 2.06772 23.6707 19.4103 1
20 1.65359 26.6875 18.5278 1
29 11.8062 30.201 19.4766 2
5 3.90552 21.0073 24.067 1
11 19.2843 20.7535 22.6754 1
27 21.9764 20.6034 22.0987 2
38 2.87005 22.1767 21.6708 2
12 30.214 23.8638 20.3555 1
8 22.8184 1.36333 24.3438 1
36 13.802 10.7234 24.4989 2
1 13.2524 25.6221 23.8233 1
23 0.587236 6.4927 29.2454 2
21 28.7928 16.0613 29.7684 2
13 3.4642 21.6899 27.9035 1
ITEM: TIMESTEP
20
ITEM: NUMBER OF ATOMS
40
ITEM: BOX BOUNDS ff ff ff
0.0000000000000000e+00 3.1305960336348480e+01
0.0000000000000000e+00 3.1305960336348480e+01
0.0000000000000000e+00 3.1305960336348480e+01
ITEM: ATOMS id x y z type
35 11.7431 3.77648 3.29309 2
28 25.2773 8.12256 2.01191 2
4 23.4674 18.8612 1.45725 1
33 16.9754 30.3341 3.98844 2
22 5.17136 4.5072 5.01423 2
3 18.282 10.2504 7.79832 1
30 3.84372 18.9886 5.53658 2
2 16.3274 21.6898 5.12485 1
39 4.23521 28.5189 6.6591 2
10 3.90776 29.5918 7.8427 1
40 5.78534 29.7365 5.08076 2
17 26.8953 3.50512 8.54552 1
25 22.2436 10.4171 10.4044 2
26 28.3607 15.2765 6.75023 2
6 10.4638 22.9592 7.38061 1
31 17.6614 13.3886 14.3211 2
18 31.2872 23.3193 12.2948 1
32 9.91654 0.312113 13.9701 2
14 17.0315 19.3929 16.0119 1
24 27.4918 18.1005 13.5193 2
37 12.4204 15.4679 17.1185 2
15 11.7839 19.9583 16.3455 1
34 26.9358 26.4027 15.2488 2
9 19.7285 28.9345 17.1499 1
19 3.21827 21.2574 18.8303 1
16 27.2196 20.7869 19.633 1
7 1.66988 23.3853 18.825 1
20 1.5447 26.3591 17.9215 1
29 11.7305 29.8436 19.8777 2
5 3.20877 21.4607 25.2049 1
11 19.5131 20.94 22.8642 1
27 22.3465 20.4017 22.7917 2
38 2.3301 21.2987 21.0392 2
12 30.0187 24.2867 19.7885 1
8 23.0263 1.21763 24.0986 1
36 13.5295 10.2828 24.6901 2
1 14.3795 26.4678 23.6319 1
23 0.0998997 6.15699 29.2643 2
21 28.3333 15.6881 30.1796 2
13 3.37594 21.2192 27.0784 1
ITEM: TIMESTEP
30
ITEM: NUMBER OF ATOMS
40
ITEM: BOX BOUNDS ff ff ff
0.0000000000000000e+00 3.1305960336348480e+01
0.0000000000000000e+00 3.1305960336348480e+01
0.0000000000000000e+00 3.1305960336348480e+01
ITEM: ATOMS id x y z type
35 11.2695 4.11671 3.31834 2
28 24.2948 8.08097 1.03499 2
4 23.3579 18.4233 0.787529 1
33 16.6598 30.6045 4.0656 2
22 4.93499 5.3183 4.92006 2
3 18.8116 10.4327 9.03049 1
30 3.22352 19.1581 5.18291 2
2 16.9125 20.6677 4.83473 1
39 4.97371 29.148 7.39032 2
10 3.60523 29.6021 7.94819 1
40 4.59749 29.7883 4.783 2
17 27.0886 3.88561 8.66754 1
25 22.9289 9.87629 10.7684 2
26 28.3731 14.7465 5.92292 2
6 10.4471 22.8684 6.85294 1
31 18.3679 14.7177 14.9318 2
18 31.227 23.0847 13.1096 1
32 9.90984 1.18942 14.2542 2
14 17.8788 19.8006 16.3604 1
24 28.2186 17.8388 13.5457 2
37 12.2199 16.3716 17.0277 2
15 12.0026 20.447 16.194 1
34 26.7791 27.1723 14.5064 2
9 19.7904 29.1381 17.2875 1
19 3.67411 21.8094 19.2124 1
16 26.8753 20.5005 19.4591 1
7 1.40411 23.1814 18.3103 1
20 1.50261 26.0693 17.3963 1
29 11.657 29.4462 20.3486 2
5 2.57541 21.9335 26.3138 1
11 19.6884 21.0733 23.103 1
27 22.7517 20.177 23.489 2
38 1.78705 20.4163 20.5255 2
12 29.783 24.7419 19.325 1
8 23.237 1.01411 23.8583 1
36 13.2647 9.79188 24.8478 2
1 15.459 27.4469 23.4272 1
23 0.410954 5.81925 29.3654 2
21 27.9301 15.4176 30.4564 2
13 3.34295 20.6685 26.2789 1
ITEM: TIMESTEP
40
ITEM: NUMBER OF ATOMS
40
ITEM: BOX BOUNDS ff ff ff
0.0000000000000000e+00 3.1305960336348480e+01
0.0000000000000000e+00 3.1305960336348480e+01
0.0000000000000000e+00 3.1305960336348480e+01
ITEM: ATOMS id x y z type
35 10.7993 4.42497 3.33987 2
28 23.2894 7.99668 0.121024 2
4 23.2336 17.918 0.00342908 1
33 16.2928 30.7967 4.10519 2
22 4.66747 6.1616 4.82878 2
3 19.3381 10.5802 10.2518 1
30 2.60869 19.3684 4.92172 2
2 17.5214 19.6224 4.53344 1
39 5.78998 29.7344 8.0313 2
10 3.2951 29.689 8.0204 1
40 3.50651 29.7723 4.49394 2
17 27.2431 4.28038 8.79884 1
25 23.5961 9.28304 11.0839 2
26 28.4392 14.2079 5.11539 2
6 10.403 22.825 6.30292 1
31 19.0498 16.0137 15.5553 2
18 31.1636 22.8619 13.8894 1
32 9.86799 2.13625 14.4577 2
14 18.7874 20.1635 16.7106 1
24 28.9601 17.5407 13.5911 2
37 12.0177 17.2128 16.9576 2
15 12.287 20.9054 15.9976 1
34 26.6538 27.8754 13.7854 2
9 19.8159 29.3883 17.4159 1
19 4.00555 22.3757 19.6332 1
16 26.5286 20.402 19.306 1
7 1.2577 23.0522 17.8789 1
20 1.58445 25.7961 16.8749 1
29 11.6673 28.9313 20.8383 2
5 2.02085 22.4245 27.3897 1
11 19.8793 21.1486 23.4645 1
27 23.1176 19.9136 24.149 2
38 1.23379 19.503 20.0426 2
12 29.5367 25.2187 18.9691 1
8 23.3261 0.731352 23.6335 1
36 12.9464 9.33648 25.0451 2
1 16.3928 28.4864 23.2229 1
23 0.997196 5.54131 29.4271 2
21 27.4784 15.1877 30.7083 2
13 3.26464 20.1608 25.4462 1
ITEM: TIMESTEP
50
ITEM: NUMBER OF ATOMS
40
ITEM: BOX BOUNDS ff ff ff
0.0000000000000000e+00 3.1305960336348480e+01
0.0000000000000000e+00 3.1305960336348480e+01
0.0000000000000000e+00 3.1305960336348480e+01
ITEM: ATOMS id x y z type
35 10.2877 4.73274 3.30852 2
28 22.2336 7.8738 0.811898 2
4 23.1547 17.5618 0.915271 1
33 15.9163 31.0354 4.14173 2
22 4.39325 7.03714 4.83317 2
3 19.8431 10.8078 11.4112 1
30 1.98362 19.5981 4.69053 2
2 18.1186 18.5503 4.23999 1
39 6.55394 30.2617 8.70189 2
10 3.01402 29.8089 7.98747 1
40 2.44158 29.7704 4.19332 2
17 27.3659 4.6848 8.89856 1
25 24.1948 8.67617 11.3637 2
26 28.6246 13.6862 4.40501 2
6 10.3828 22.9126 5.74916 1
31 19.7444 17.2129 16.1733 2
18 31.2036 22.7191 14.6799 1
32 9.88584 3.11512 14.5598 2
14 19.6896 20.5478 17.0012 1
24 29.7565 17.3094 13.597 2
37 11.8196 18.0024 17.0286 2
15 12.6318 21.3402 15.9407 1
34 26.5009 28.5993 13.1147 2
9 19.921 29.6787 17.597 1
19 4.33658 22.9646 19.9546 1
16 26.2071 20.4048 19.0475 1
7 1.17332 22.9592 17.358 1
20 1.68972 25.4777 16.3192 1
29 11.7047 28.5271 21.2727 2
5 1.51355 22.7987 28.5233 1
11 20.1751 21.2706 23.7735 1
27 23.4772 19.6235 24.756 2
38 0.680525 18.6892 19.5071 2
12 29.3376 25.726 18.5411 1
8 23.2908 0.468236 23.5051 1
36 12.5467 8.94901 25.29 2
1 17.2448 29.532 23.0322 1
23 1.626 5.2756 29.5532 2
21 26.9538 14.9213 31.02 2
13 3.21663 19.7451 24.5924 1
ITEM: TIMESTEP
60
ITEM: NUMBER OF ATOMS
40
ITEM: BOX BOUNDS ff ff ff
0.0000000000000000e+00 3.1305960336348480e+01
0.0000000000000000e+00 3.1305960336348480e+01
0.0000000000000000e+00 3.1305960336348480e+01
ITEM: ATOMS id x y z type
35 9.90704 4.98201 3.28559 2
28 21.1872 7.684 1.67272 2
4 23.1378 17.2132 1.87968 1
33 15.546 31.2974 4.14542 2
22 4.06184 7.98906 4.83933 2
3 20.3268 10.9835 12.4622 1
30 1.46542 19.8244 4.42212 2
2 18.7399 17.4798 3.97646 1
39 7.33481 30.6709 9.27598 2
10 2.69606 29.7814 7.92491 1
40 1.41665 29.6642 3.88085 2
17 27.4838 5.12498 9.05 1
25 24.8262 8.09745 11.5691 2
26 28.845 13.2764 3.7748 2
6 10.3572 23.04 5.15386 1
31 20.4303 18.3792 16.7359 2
18 31.25 22.6234 15.3204 1
32 9.89461 4.15407 14.6259 2
14 20.6506 20.9661 17.3123 1
24 30.565 17.2268 13.5839 2
37 11.6135 18.8056 17.2438 2
15 13.0562 21.7304 15.9694 1
34 26.2834 29.3285 12.3915 2
9 19.9723 29.9763 17.7594 1
19 4.62188 23.5484 20.223 1
16 25.8856 20.303 18.767 1
7 1.09248 22.8966 16.8679 1
20 1.77538 25.0809 15.8034 1
29 11.6896 28.154 21.6741 2
5 1.05638 23.1268 29.7414 1
11 20.4794 21.3429 24.0545 1
27 23.7988 19.2917 25.4133 2
38 0.0764435 17.9112 19.0474 2
12 29.1593 26.2796 18.0571 1
8 23.2334 0.160852 23.4353 1
36 12.0851 8.51523 25.5472 2
1 18.1969 30.6423 22.8726 1
23 2.17209 5.05232 29.6845 2
21 26.4095 14.7375 31.2332 2
13 3.18614 19.2746 23.8701 1
ITEM: TIMESTEP
70
ITEM: NUMBER OF ATOMS
40
ITEM: BOX BOUNDS ff ff ff
0.0000000000000000e+00 3.1305960336348480e+01
0.0000000000000000e+00 3.1305960336348480e+01
0.0000000000000000e+00 3.1305960336348480e+01
ITEM: ATOMS id x y z type
35 9.51805 5.0788 3.26562 2
28 20.1289 7.41061 2.52519 2
4 23.1413 16.9264 2.88752 1
33 15.2527 30.9975 4.2611 2
22 3.65945 8.88778 4.96726 2
3 20.7873 11.1947 13.5108 1
30 0.972153 19.9765 4.08983 2
2 19.2746 16.4122 3.70056 1
39 8.26366 31.0754 9.8812 2
10 2.45425 29.7292 7.87627 1
40 0.373171 29.5066 3.59394 2
17 27.5915 5.58365 9.21062 1
25 25.4373 7.41562 11.7445 2
26 29.1144 13.0392 3.23405 2
6 10.318 23.1571 4.63385 1
31 21.0657 19.5065 17.3247 2
18 31.2555 22.5493 15.8913 1
32 9.93658 5.20662 14.7194 2
14 21.628 21.4132 17.5726 1
24 31.2485 17.3082 13.5858 2
37 11.4157 19.6319 17.5347 2
15 13.4771 22.1445 15.9755 1
34 25.9945 30.0388 11.7462 2
9 20.0112 30.1751 17.8975 1
19 4.79958 24.1614 20.5044 1
16 25.5738 20.1008 18.4795 1
7 0.983568 22.7448 16.3331 1
20 1.81176 24.6797 15.4003 1
29 11.5977 27.6788 22.1074 2
5 0.684482 23.4873 30.9507 1
11 20.7784 21.4218 24.4031 1
27 24.0297 18.9518 26.0822 2
38 0.533497 17.1838 18.694 2
12 28.9958 26.9139 17.4464 1
8 23.1262 0.152141 23.4028 1
36 11.5589 8.1212 25.7713 2
1 19.1052 30.9272 22.764 1
23 2.64825 4.81717 29.8131 2
21 25.8849 14.5039 30.8627 2
13 3.18713 18.8978 23.256 1
ITEM: TIMESTEP
80
ITEM: NUMBER OF ATOMS
40
ITEM: BOX BOUNDS ff ff ff
0.0000000000000000e+00 3.1305960336348480e+01
0.0000000000000000e+00 3.1305960336348480e+01
0.0000000000000000e+00 3.1305960336348480e+01
ITEM: ATOMS id x y z type
35 9.2704 5.1352 3.19539 2
28 19.1131 7.04675 3.37586 2
4 23.1437 16.6958 3.82774 1
33 14.9658 30.6267 4.39782 2
22 3.21167 9.79433 5.11513 2
3 21.2822 11.4619 14.6416 1
30 0.432042 20.1245 3.68339 2
2 19.7147 15.2698 3.49728 1
39 9.28474 31.1076 10.4353 2
10 2.25699 29.6819 7.81785 1
40 0.692514 29.3424 3.42436 2
17 27.5919 5.99102 9.31647 1
25 26.0465 6.63357 11.9635 2
26 29.4775 12.9303 2.80455 2
6 10.4299 23.3587 4.14758 1
31 21.6491 20.6475 17.8909 2
18 31.1619 22.4391 16.4543 1
32 10.0097 6.23803 14.8461 2
14 22.5945 21.857 17.7486 1
24 30.8153 17.3978 13.5321 2
37 11.1535 20.4282 17.8316 2
15 13.9514 22.5824 16.0093 1
34 25.5926 30.7518 11.0671 2
9 19.9708 30.3954 18.0505 1
19 4.8685 24.7774 20.8643 1
16 25.2184 19.8828 18.1556 1
7 0.935824 22.6427 15.7693 1
20 1.91454 24.3511 14.8916 1
29 11.4586 27.2529 22.6134 2
5 0.371884 23.8678 30.3832 1
11 21.0088 21.4984 24.7324 1
27 24.2318 18.7141 26.839 2
38 1.07278 16.4744 18.2159 2
12 28.7795 27.563 16.8352 1
8 22.9697 0.424614 23.3305 1
36 11.0153 7.80552 26.0372 2
1 20.0643 29.9309 22.6411 1
23 3.06153 4.5541 29.9531 2
21 25.3896 14.2361 30.5139 2
13 3.19624 18.4743 22.6634 1
ITEM: TIMESTEP
90
ITEM: NUMBER OF ATOMS
40
ITEM: BOX BOUNDS ff ff ff
0.0000000000000000e+00 3.1305960336348480e+01
0.0000000000000000e+00 3.1305960336348480e+01
0.0000000000000000e+00 3.1305960336348480e+01
ITEM: ATOMS id x y z type
35 9.01834 5.33552 3.0814 2
28 18.2393 6.53291 4.30258 2
4 23.1415 16.5444 4.75498 1
33 14.5861 30.2418 4.46678 2
22 2.71922 10.6924 5.19597 2
3 21.8045 11.8588 15.7687 1
30 0.0381476 20.2572 3.26774 2
2 20.1195 14.1214 3.27373 1
39 10.3711 30.69 11.052 2
10 1.99675 29.6305 7.73009 1
40 1.65443 29.2602 3.28175 2
17 27.4307 6.38091 9.32576 1
25 26.5229 5.811 12.2358 2
26 29.8424 12.7819 2.44674 2
6 10.5225 23.5686 3.70346 1
31 22.2824 21.6733 18.431 2
18 31.1013 22.3551 16.8652 1
32 10.0901 7.17666 14.879 2
14 23.6445 22.2505 17.9625 1
24 30.292 17.3555 13.4706 2
37 10.8869 21.1615 18.0906 2
15 14.4827 22.958 16.076 1
34 25.2177 31.172 10.424 2
9 19.8509 30.5967 18.1822 1
19 4.94007 25.3603 21.2442 1
16 24.8477 19.6233 17.8115 1
7 0.955223 22.5859 15.2501 1
20 2.02321 24.0423 14.3537 1
29 11.295 26.8272 23.1705 2
5 0.159049 24.3151 29.1459 1
11 21.2431 21.5582 25.068 1
27 24.4614 18.5331 27.643 2
38 1.60262 15.8086 17.7186 2
12 28.5104 28.2492 16.2579 1
8 22.8254 0.737613 23.2866 1
36 10.462 7.56268 26.4095 2
1 21.0077 28.9527 22.4397 1
23 3.5004 4.27664 30.1546 2
21 24.9546 14.0541 30.2552 2
13 3.2462 17.9808 22.0267 1
ITEM: TIMESTEP
100
ITEM: NUMBER OF ATOMS
40
ITEM: BOX BOUNDS ff ff ff
0.0000000000000000e+00 3.1305960336348480e+01
0.0000000000000000e+00 3.1305960336348480e+01
0.0000000000000000e+00 3.1305960336348480e+01
ITEM: ATOMS id x y z type
35 8.81588 5.59617 2.94234 2
28 17.3704 6.02536 5.35264 2
4 23.0572 16.3838 5.70591 1
33 14.0978 29.9255 4.59762 2
22 2.21891 11.5871 5.34374 2
3 22.2863 12.2688 16.9856 1
30 0.593615 20.3936 2.78721 2
2 20.5189 12.9938 2.96592 1
39 11.4258 30.2327 11.7331 2
10 1.75943 29.5192 7.52762 1
40 2.52651 29.2916 3.14452 2
17 27.2379 6.76975 9.2732 1
25 26.9716 5.0329 12.5172 2
26 30.2027 12.5702 2.13027 2
6 10.5696 23.7247 3.25345 1
31 22.9182 22.5572 19.0107 2
18 30.9881 22.2477 17.2622 1
32 10.2323 8.12855 14.8169 2
14 24.7289 22.6459 18.1747 1
24 29.7446 17.3094 13.4142 2
37 10.6821 21.8303 18.3401 2
15 15.0267 23.376 16.0755 1
34 24.9138 30.4861 9.8356 2
9 19.7371 30.8412 18.2764 1
19 5.05006 26.0233 21.6034 1
16 24.4722 19.3706 17.6055 1
7 0.993973 22.5431 14.764 1
20 2.09021 23.803 13.718 1
29 10.978 26.4125 23.7506 2
5 0.0762201 24.7288 27.9074 1
11 21.4741 21.5993 25.4312 1
27 24.7219 18.2804 28.4151 2
38 2.05602 15.0755 17.3294 2
12 28.1872 29.03 15.6927 1
8 22.599 1.06341 23.2476 1
36 9.85058 7.39184 26.871 2
1 22.0106 27.9075 22.242 1
23 3.97278 4.02131 30.3018 2
21 24.5258 13.8981 30.0097 2
13 3.24651 17.3965 21.3358 1
ITEM: TIMESTEP
110
ITEM: NUMBER OF ATOMS
40
ITEM: BOX BOUNDS ff ff ff
0.0000000000000000e+00 3.1305960336348480e+01
0.0000000000000000e+00 3.1305960336348480e+01
0.0000000000000000e+00 3.1305960336348480e+01
ITEM: ATOMS id x y z type
26 30.4752 12.3917 1.77517 2
35 8.60116 5.86275 2.84842 2
2 20.8702 11.9592 2.65595 1
30 1.19381 20.4167 2.3333 2
6 10.5755 23.852 2.81791 1
40 3.31605 29.3798 3.14639 2
33 13.54 29.5487 4.74356 2
28 16.4641 5.51321 6.37195 2
22 1.66433 12.4357 5.46639 2
4 22.8943 16.2411 6.75034 1
10 1.6599 29.3571 7.23577 1
17 27.0176 7.14079 9.23409 1
34 24.6302 29.7946 9.21777 2
25 27.4296 4.29838 12.7979 2
39 12.561 29.8756 12.3718 2
32 10.4167 9.00377 14.7789 2
24 29.0499 17.2965 13.441 2
7 1.09461 22.475 14.3356 1
20 2.11997 23.5743 13.088 1
3 22.7902 12.7432 18.2629 1
38 2.39558 14.4312 16.9864 2
16 24.1236 19.2148 17.4693 1
15 15.5491 23.7806 16.1087 1
14 25.7601 23.0632 18.3539 1
18 30.8132 22.1263 17.6261 1
12 27.9413 29.8281 15.0325 1
37 10.4794 22.4678 18.6738 2
31 23.4203 23.3809 19.5886 2
9 19.6226 31.0437 18.2803 1
8 22.3985 1.33867 23.2462 1
13 3.23032 16.7895 20.6289 1
19 5.19879 26.7746 21.8583 1
1 23.0383 26.862 22.0599 1
11 21.7274 21.6735 25.8045 1
29 10.5448 26.0754 24.2818 2
36 9.22405 7.23866 27.3856 2
27 24.9566 18.1682 29.1352 2
5 0.27736 25.2627 26.6609 1
23 4.40275 3.72717 30.4654 2
21 24.1655 13.7807 29.6749 2
ITEM: TIMESTEP
120
ITEM: NUMBER OF ATOMS
40
ITEM: BOX BOUNDS ff ff ff
0.0000000000000000e+00 3.1305960336348480e+01
0.0000000000000000e+00 3.1305960336348480e+01
0.0000000000000000e+00 3.1305960336348480e+01
ITEM: ATOMS id x y z type
26 30.6444 12.265 1.43378 2
35 8.46366 6.18257 2.77915 2
2 21.1291 10.9123 2.42191 1
30 1.77301 20.3864 1.89443 2
6 10.5785 23.9893 2.35418 1
40 4.18178 29.4634 3.15203 2
33 13.0212 29.1908 4.79469 2
28 15.6075 4.96345 7.40108 2
22 1.24381 13.3543 5.55014 2
4 22.7051 16.0772 7.74759 1
10 1.49402 29.2142 6.8938 1
17 26.8311 7.47722 9.15983 1
34 24.3425 29.2255 8.56813 2
25 27.8519 3.56659 13.0207 2
39 13.715 29.587 12.9563 2
32 10.5435 9.84567 14.753 2
24 28.3501 17.2748 13.3599 2
7 1.18441 22.3401 13.9445 1
20 2.0152 23.386 12.4655 1
3 23.3599 13.2327 19.5102 1
38 2.63152 13.7632 16.6355 2
16 23.8829 19.1998 17.3197 1
15 16.0212 24.1295 16.1458 1
14 26.8416 23.4106 18.5255 1
18 30.6085 21.936 17.8603 1
12 27.7119 30.53 14.3341 1
37 10.3002 23.065 18.9955 2
31 23.8712 24.1601 20.0843 2
9 19.6063 31.1539 18.2638 1
8 22.178 1.6389 23.3514 1
13 3.20709 16.1792 19.8756 1
19 5.33837 27.5684 22.0533 1
1 24.1122 25.8298 21.8984 1
11 21.9771 21.7162 26.1138 1
29 10.0273 25.7886 24.7509 2
36 8.56051 6.97374 27.9627 2
27 25.1824 18.0478 29.7973 2
5 0.540381 25.8595 25.4296 1
23 4.81586 3.48924 30.6167 2
21 23.7588 13.582 29.3837 2
ITEM: TIMESTEP
130
ITEM: NUMBER OF ATOMS
40
ITEM: BOX BOUNDS ff ff ff
0.0000000000000000e+00 3.1305960336348480e+01
0.0000000000000000e+00 3.1305960336348480e+01
0.0000000000000000e+00 3.1305960336348480e+01
ITEM: ATOMS id x y z type
26 30.9002 12.1115 1.18617 2
35 8.2757 6.46353 2.77709 2
2 21.3663 9.8547 2.23337 1
30 2.36364 20.3292 1.50973 2
6 10.5634 24.0911 1.95077 1
40 4.9903 29.59 3.19761 2
33 12.6031 28.949 4.73693 2
28 14.7699 4.39412 8.32847 2
22 0.818582 14.3285 5.61474 2
4 22.471 15.921 8.74563 1
10 1.24623 29.103 6.52713 1
17 26.5932 7.80991 9.04454 1
34 24.1014 28.6621 7.90112 2
25 28.3272 2.77876 13.2575 2
39 14.7919 29.3394 13.5601 2
32 10.6466 10.6834 14.6443 2
24 27.5685 17.158 13.1951 2
7 1.3153 22.1806 13.5035 1
20 1.83575 23.1647 11.8789 1
3 23.9802 13.6787 20.8199 1
38 2.89119 13.0446 16.3929 2
16 23.6838 19.1803 17.2089 1
15 16.5714 24.491 16.2699 1
14 27.8764 23.8321 18.7185 1
18 30.4044 21.7202 18.0676 1
12 27.5113 31.2371 13.5265 1
37 10.0714 23.5973 19.1433 2
31 24.3738 24.9108 20.5515 2
9 19.6135 31.1987 18.327 1
8 21.901 1.8364 23.413 1
13 3.28043 15.5748 19.1573 1
19 5.49988 28.4742 22.3235 1
1 25.1173 24.8405 21.8629 1
11 22.1576 21.6648 26.4292 1
29 9.4857 25.4679 25.1549 2
36 7.96389 6.64457 28.5407 2
27 25.4587 17.9332 30.3625 2
5 0.838273 26.4373 24.2328 1
23 5.16253 3.22156 30.8009 2
21 23.3914 13.2788 29.1338 2
ITEM: TIMESTEP
140
ITEM: NUMBER OF ATOMS
40
ITEM: BOX BOUNDS ff ff ff
0.0000000000000000e+00 3.1305960336348480e+01
0.0000000000000000e+00 3.1305960336348480e+01
0.0000000000000000e+00 3.1305960336348480e+01
ITEM: ATOMS id x y z type
26 31.2971 11.9917 0.995595 2
35 8.00861 6.76468 2.70464 2
2 21.6258 8.84031 2.16648 1
30 2.99942 20.2236 1.08653 2
6 10.5954 24.2145 1.59832 1
40 5.75415 29.7143 3.25785 2
33 12.1853 28.7494 4.63923 2
28 13.96 3.75748 9.13674 2
22 0.436673 15.3183 5.68255 2
4 22.3159 15.7643 9.7959 1
10 0.934601 29.0109 6.15016 1
17 26.3999 8.15914 8.96463 1
34 23.8767 28.1195 7.29624 2
25 28.8713 1.89246 13.548 2
39 15.8608 29.0941 14.0965 2
32 10.81 11.5307 14.5689 2
24 26.8853 17.0468 13.0939 2
7 1.55697 21.9287 13.0499 1
20 1.68966 22.9759 11.3148 1
3 24.6665 14.0644 22.1609 1
38 3.27733 12.3883 16.2112 2
16 23.5127 19.0641 17.0536 1
15 17.157 24.7814 16.326 1
14 28.9521 24.3326 18.8953 1
18 30.2693 21.484 18.1739 1
12 27.4587 30.671 12.6246 1
37 9.76282 24.0985 19.2431 2
31 24.8629 25.5986 21.1319 2
9 19.7184 31.1659 18.4673 1
8 21.6079 2.02524 23.4417 1
13 3.44313 14.9414 18.3866 1
19 5.6066 29.4268 22.5716 1
1 26.0305 23.9435 21.7787 1
11 22.2763 21.5267 26.6957 1
29 8.86721 25.1526 25.6288 2
36 7.40048 6.41246 29.2063 2
27 25.6861 17.796 30.8671 2
5 1.13503 26.9837 23.1307 1
23 5.61476 2.91713 31.034 2
21 23.0954 13.0018 28.9773 2
ITEM: TIMESTEP
150
ITEM: NUMBER OF ATOMS
40
ITEM: BOX BOUNDS ff ff ff
0.0000000000000000e+00 3.1305960336348480e+01
0.0000000000000000e+00 3.1305960336348480e+01
0.0000000000000000e+00 3.1305960336348480e+01
ITEM: ATOMS id x y z type
26 30.8823 11.8077 0.775191 2
35 7.71468 6.98738 2.60326 2
2 21.9062 7.81251 2.08382 1
30 3.59856 20.1168 0.68801 2
6 10.6604 24.4893 1.24603 1
40 6.53963 29.8562 3.39784 2
33 11.728 28.5439 4.68012 2
28 13.1521 3.00189 9.82784 2
22 0.0106698 16.3659 5.77115 2
4 22.1795 15.5955 10.9063 1
10 0.554394 28.9038 5.74472 1
17 26.2424 8.48256 8.92016 1
34 23.5987 27.5843 6.67472 2
25 29.4607 0.902411 13.8651 2
39 16.9656 28.8501 14.6298 2
32 10.9365 12.4084 14.5056 2
24 26.2416 16.9384 12.9725 2
7 1.79138 21.6609 12.4973 1
20 1.59355 22.8888 10.8304 1
3 25.3266 14.4039 23.5573 1
38 3.73552 11.7437 16.0332 2
16 23.2982 18.9083 16.9411 1
15 17.7773 25.019 16.431 1
14 30.0752 24.865 18.9584 1
18 30.1031 21.324 18.247 1
12 27.531 29.9527 11.7389 1
37 9.31502 24.6148 19.2186 2
31 25.3783 26.2991 21.7618 2
9 19.9564 31.114 18.6499 1
8 21.2539 2.25724 23.5475 1
13 3.54599 14.4106 17.6209 1
19 5.75543 30.4808 22.9384 1
1 27.0742 23.1659 21.6176 1
11 22.3387 21.4001 27.0725 1
29 8.26371 24.7812 26.1813 2
36 6.99732 6.22051 29.772 2
27 25.7931 17.5533 31.1848 2
5 1.43965 27.5749 22.1198 1
23 6.09815 2.72619 31.2395 2
21 22.8459 12.8059 28.8378 2
ITEM: TIMESTEP
160
ITEM: NUMBER OF ATOMS
40
ITEM: BOX BOUNDS ff ff ff
0.0000000000000000e+00 3.1305960336348480e+01
0.0000000000000000e+00 3.1305960336348480e+01
0.0000000000000000e+00 3.1305960336348480e+01
ITEM: ATOMS id x y z type
26 30.5375 11.6449 0.513081 2
35 7.41202 7.08283 2.51621 2
2 22.1374 6.72626 2.03254 1
30 4.20439 19.9908 0.210438 2
6 10.7181 24.8215 0.832056 1
40 7.38288 29.9794 3.62275 2
33 11.193 28.275 4.71178 2
28 12.3625 2.25233 10.4814 2
22 0.486648 17.3928 5.91279 2
4 22.0873 15.395 11.9576 1
10 0.0568003 28.8908 5.27898 1
17 26.1161 8.78173 8.81824 1
34 23.2676 27.0776 6.09765 2
25 30.0154 0.0759748 14.2079 2
39 18.1521 28.6175 15.2543 2
32 11.0595 13.2802 14.476 2
24 25.6218 16.9323 12.9196 2
7 1.97598 21.4122 11.9767 1
20 1.59379 22.7259 10.3619 1
3 26.0039 14.7385 24.9429 1
38 4.17257 11.0582 15.9206 2
16 23.0602 18.6712 16.8325 1
15 18.3847 25.2296 16.505 1
14 31.1534 25.4184 19.0799 1
18 29.886 21.1588 18.3175 1
12 27.5482 29.2405 10.9101 1
37 8.93555 25.0708 19.0881 2
31 25.9826 26.9585 22.3349 2
9 20.1521 30.9565 18.7282 1
8 20.9622 2.48792 23.6504 1
13 3.7017 14.0068 16.9258 1
19 5.99464 31.0718 23.3718 1
1 28.1744 22.4208 21.4606 1
11 22.364 21.2928 27.4358 1
29 7.71279 24.3265 26.7552 2
36 6.65605 6.0773 30.2555 2
27 25.7694 17.268 30.5925 2
5 1.78676 28.1253 20.9937 1
23 6.58831 2.71967 31.208 2
21 22.5414 12.5642 28.7239 2
ITEM: TIMESTEP
170
ITEM: NUMBER OF ATOMS
40
ITEM: BOX BOUNDS ff ff ff
0.0000000000000000e+00 3.1305960336348480e+01
0.0000000000000000e+00 3.1305960336348480e+01
0.0000000000000000e+00 3.1305960336348480e+01
ITEM: ATOMS id x y z type
26 30.1477 11.5894 0.212378 2
35 7.1647 7.28571 2.44091 2
2 22.421 5.58258 2.16233 1
30 4.84207 19.9507 0.269456 2
6 10.8123 25.133 0.409369 1
40 8.25656 30.0592 3.92746 2
33 10.5846 28.0394 4.62596 2
28 11.5074 1.61285 11.1441 2
22 1.08149 18.2859 6.11432 2
4 21.9725 15.2078 12.9754 1
10 0.396055 28.8604 4.74988 1
17 25.9 9.05637 8.70442 1
34 22.8648 26.6391 5.67094 2
25 30.5855 0.973201 14.6273 2
39 19.3857 28.4341 15.9443 2
32 11.195 14.2512 14.3794 2
24 25.0704 16.9943 12.9025 2
7 2.11073 21.1137 11.4678 1
20 1.72072 22.5253 9.87712 1
3 26.8384 15.0741 26.3041 1
38 4.56951 10.3394 15.8325 2
16 22.8747 18.4377 16.7502 1
15 18.9594 25.3918 16.599 1
14 30.4164 25.9768 19.1745 1
18 29.7428 20.9875 18.4246 1
12 27.6308 28.5293 9.93215 1
37 8.65439 25.4408 18.8915 2
31 26.5652 27.6651 22.9345 2
9 20.2628 30.7674 18.7458 1
8 20.655 2.72471 23.8169 1
13 3.84981 13.5309 16.2733 1
19 6.17522 29.9843 23.7158 1
1 29.2569 21.6972 21.2491 1
11 22.3992 21.2242 27.8339 1
29 7.17217 23.8427 27.3301 2
36 6.27825 6.01712 30.764 2
27 25.7243 16.9983 30.0405 2
5 2.06093 28.5867 19.8364 1
23 7.05798 2.71216 31.1529 2
21 22.1681 12.3087 28.5474 2
ITEM: TIMESTEP
180
ITEM: NUMBER OF ATOMS
40
ITEM: BOX BOUNDS ff ff ff
0.0000000000000000e+00 3.1305960336348480e+01
0.0000000000000000e+00 3.1305960336348480e+01
0.0000000000000000e+00 3.1305960336348480e+01
ITEM: ATOMS id x y z type
26 29.6903 11.5653 0.223297 2
35 6.97371 7.55235 2.48158 2
2 22.7608 4.40545 2.33969 1
30 5.50062 19.8976 0.732086 2
6 10.8565 25.4657 0.0582583 1
40 9.11727 30.2423 4.24174 2
33 9.89867 27.9106 4.43533 2
28 10.6695 0.937387 11.8168 2
22 1.62271 19.2425 6.29806 2
4 21.8146 14.96 13.9042 1
10 0.933958 28.908 4.31939 1
17 25.7396 9.2922 8.50502 1
34 22.3625 26.1984 5.3646 2
25 31.13 1.85918 15.1429 2
39 20.6399 28.1809 16.4758 2
32 11.2665 15.2213 14.4724 2
24 24.4706 17.0004 12.9714 2
7 2.18881 20.7591 11.0959 1
20 1.87923 22.3079 9.2874 1
3 27.6012 15.3495 27.6771 1
38 5.00649 9.64531 15.7758 2
16 22.7097 18.1935 16.7543 1
15 19.4955 25.5705 16.7785 1
14 29.2658 26.641 19.1724 1
18 29.6693 20.811 18.5885 1
12 27.8636 27.7924 8.8488 1
37 8.42666 25.7728 18.6079 2
31 27.1138 28.3718 23.5606 2
9 20.3332 30.638 18.7789 1
8 20.3044 2.92389 24.1065 1
13 3.8063 13.0417 15.5738 1
19 6.30666 28.9634 24.0424 1
1 30.3442 21.091 21.0596 1
11 22.4428 21.171 28.2801 1
29 6.65492 23.3551 27.861 2
36 5.88192 5.96949 31.1363 2
27 25.6606 16.716 29.4282 2
5 2.26491 28.9685 18.6345 1
23 7.51715 2.67112 31.0673 2
21 21.7592 12.0282 28.2268 2
ITEM: TIMESTEP
190
ITEM: NUMBER OF ATOMS
40
ITEM: BOX BOUNDS ff ff ff
0.0000000000000000e+00 3.1305960336348480e+01
0.0000000000000000e+00 3.1305960336348480e+01
0.0000000000000000e+00 3.1305960336348480e+01
ITEM: ATOMS id x y z type
26 29.3553 11.5159 0.67666 2
35 6.78246 7.75277 2.50591 2
2 23.1804 3.26729 2.45562 1
30 6.09642 19.7397 1.1732 2
6 10.9122 25.8596 0.420946 1
40 9.91713 30.5619 4.52134 2
33 9.25722 27.8707 4.19318 2
28 9.7476 0.281629 12.6316 2
22 2.11842 20.2105 6.48768 2
4 21.621 14.7807 14.8324 1
10 1.59137 28.8221 3.93363 1
17 25.5624 9.63007 8.24714 1
34 21.7446 25.826 5.18202 2
25 31.0083 2.68379 15.7184 2
39 21.7978 27.8319 16.9454 2
32 11.3115 16.2548 14.6895 2
24 23.822 16.9559 13.0357 2
7 2.32255 20.3561 10.6937 1
20 2.07821 22.1461 8.65913 1
3 28.3622 15.6086 29.0339 1
38 5.49467 9.0951 15.7114 2
16 22.5436 17.9815 16.7635 1
15 20.1619 25.7723 16.825 1
14 28.1358 27.3229 19.1797 1
18 29.6331 20.675 18.6924 1
12 28.051 27.0127 7.84271 1
37 8.19448 26.1524 18.2888 2
31 27.6704 29.0957 24.2003 2
9 20.3759 30.6462 18.7476 1
8 19.864 3.18034 24.4409 1
13 3.69939 12.5809 14.9536 1
19 6.3275 27.9238 24.3447 1
1 31.2196 20.5894 20.8762 1
11 22.4604 21.1686 28.76 1
29 6.08295 22.8371 28.4794 2
36 5.47094 5.91153 31.1997 2
27 25.5465 16.3856 28.8023 2
5 2.47548 29.3909 17.4287 1
23 8.03615 2.61817 31.1375 2
21 21.3545 11.7482 27.9003 2
ITEM: TIMESTEP
200
ITEM: NUMBER OF ATOMS
40
ITEM: BOX BOUNDS ff ff ff
0.0000000000000000e+00 3.1305960336348480e+01
0.0000000000000000e+00 3.1305960336348480e+01
0.0000000000000000e+00 3.1305960336348480e+01
ITEM: ATOMS id x y z type
26 29.1029 11.5034 1.11977 2
35 6.50158 7.96006 2.48915 2
2 23.6241 2.15861 2.47417 1
30 6.66783 19.536 1.53006 2
6 11.0317 26.1548 0.976334 1
40 10.6914 30.9524 4.88185 2
33 8.67928 27.72 3.92075 2
28 8.8266 0.385703 13.4804 2
22 2.65595 21.1787 6.63132 2
4 21.2491 14.7432 15.6328 1
10 2.28644 28.7239 3.55832 1
17 25.3849 9.94253 7.95225 1
34 21.1681 25.4956 5.1057 2
25 30.54 3.55541 16.2404 2
39 22.9891 27.4463 17.4105 2
32 11.4236 17.3165 14.9012 2
24 23.17 16.789 13.1125 2
7 2.36553 20.0038 10.3362 1
20 2.28395 22.0314 8.09599 1
3 29.1322 15.855 30.4497 1
38 5.96023 8.52622 15.66 2
16 22.3836 17.7372 16.782 1
15 20.8359 26.0349 16.8935 1
14 27.0112 28.0093 19.166 1
18 29.5702 20.5652 18.7552 1
12 28.2174 26.1908 6.93518 1
37 7.96364 26.5502 17.9038 2
31 28.2778 29.7825 24.9137 2
9 20.3961 30.7219 18.6707 1
8 19.3973 3.45649 24.7717 1
13 3.58615 12.1209 14.3489 1
19 6.33791 26.9328 24.6388 1
1 30.2101 20.1701 20.6991 1
11 22.3843 21.1473 29.1982 1
29 5.43863 22.3036 29.0989 2
36 5.08117 5.86186 30.9003 2
27 25.3692 16.061 28.2488 2
5 2.57608 29.7382 16.2348 1
23 8.61226 2.47792 31.1767 2
21 21.019 11.4737 27.55 2
ITEM: TIMESTEP
210
ITEM: NUMBER OF ATOMS
40
ITEM: BOX BOUNDS ff ff ff
0.0000000000000000e+00 3.1305960336348480e+01
0.0000000000000000e+00 3.1305960336348480e+01
0.0000000000000000e+00 3.1305960336348480e+01
ITEM: ATOMS id x y z type
2 23.9815 0.979643 2.55035 1
35 6.21121 8.27983 2.49038 2
26 28.8975 11.3847 1.60968 2
30 7.19571 19.2903 1.96828 2
6 11.179 26.469 1.449 1
34 20.5589 25.1877 5.07858 2
33 8.19866 27.5243 3.69715 2
10 2.95663 28.6064 3.18748 1
40 11.4739 31.2509 5.29081 2
22 3.13024 22.1476 6.73715 2
12 28.4925 25.3531 5.95557 1
17 25.1962 10.2832 7.65989 1
7 2.31871 19.6409 9.92914 1
20 2.42783 21.9188 7.56707 1
28 7.91558 1.19151 14.3147 2
13 3.41783 11.7705 13.6904 1
4 20.8488 14.7152 16.4704 1
32 11.4993 18.3154 15.1287 2
24 22.5397 16.617 13.2034 2
25 30.0055 4.4536 16.6553 2
38 6.43986 7.88437 15.6059 2
16 22.2853 17.5687 16.8562 1
15 21.5065 26.3353 17.0478 1
37 7.76046 26.8997 17.5887 2
39 24.1163 27.112 17.8902 2
5 2.58699 30.08 15.0339 1
18 29.4827 20.3383 18.8703 1
1 29.1313 19.8664 20.5457 1
14 25.9818 28.6114 19.0951 1
9 20.5166 30.7663 18.4485 1
8 18.9632 3.73912 25.1779 1