ITEM: TIMESTEP
0
ITEM: NUMBER OF ATOMS
24
ITEM: BOX BOUNDS ff ff ff
0.0000000000000000e+00 3.1305960336348480e+01
0.0000000000000000e+00 3.1305960336348480e+01
0.0000000000000000e+00 3.1305960336348480e+01
ITEM: ATOMS id x y z type
18 15.1587 3.75525 1.67192 3
11 9.25666 17.3266 0.880178 2
24 6.72726 19.2228 0.579358 5
14 3.72139 27.3274 2.2182 2
13 5.6813 2.44971 5.0164 2
23 2.48545 10.8783 4.17465 5
4 23.5901 19.5936 2.76448 1
17 25.4867 26.1299 4.73582 3
20 19.7126 30.36 5.11015 4
3 17.1819 10.0755 5.29699 1
2 15.2549 23.8407 5.58904 1
10 4.58022 29.7548 7.6232 1
15 6.44917 9.88203 9.09652 3
6 10.7211 23.2783 8.18102 1
22 21.1985 22.0978 15.3858 5
19 3.64167 2.43741 17.3129 4
12 16.7408 15.5785 15.8647 2
9 19.7032 28.5241 16.593 1
7 2.55888 24.0166 20.0139 1
5 4.54242 20.5616 22.9134 1
8 22.6279 1.55121 24.6145 1
1 12.0642 24.7713 23.9698 1
21 0.83418 26.2987 25.5292 5
16 18.2267 7.31628 26.1404 3
ITEM: TIMESTEP
10
ITEM: NUMBER OF ATOMS
24
ITEM: BOX BOUNDS ff ff ff
0.0000000000000000e+00 3.1305960336348480e+01
0.0000000000000000e+00 3.1305960336348480e+01
0.0000000000000000e+00 3.1305960336348480e+01
ITEM: ATOMS id x y z type
18 15.2235 3.66002 1.9223 3
11 9.27111 17.4615 0.995799 2
24 6.96173 19.1351 0.629655 5
14 3.97548 27.5034 2.34753 2
13 5.58953 2.32896 4.62044 2
23 2.27397 10.8199 4.17435 5
4 23.5075 19.5037 2.53405 1
17 25.5569 26.2589 4.79464 3
20 19.613 30.248 4.86777 4
3 17.3247 10.1291 5.71408 1
2 15.4336 23.4601 5.54012 1
10 4.44558 29.7666 7.69411 1
15 6.49681 10.0379 9.03164 3
6 10.6511 23.2071 8.06587 1
22 21.1196 22.3096 15.2463 5
19 3.78138 2.60789 17.3482 4
12 16.7012 15.6783 15.6756 2
9 19.7142 28.5673 16.7035 1
7 2.36016 23.8843 19.7966 1
5 4.30414 20.6973 23.3004 1
8 22.6485 1.46917 24.4698 1
1 12.4388 25.0507 23.9073 1
21 0.681922 26.1023 25.7758 5
16 18.0903 7.15066 26.1005 3
ITEM: TIMESTEP
20
ITEM: NUMBER OF ATOMS
24
ITEM: BOX BOUNDS ff ff ff
0.0000000000000000e+00 3.1305960336348480e+01
0.0000000000000000e+00 3.1305960336348480e+01
0.0000000000000000e+00 3.1305960336348480e+01
ITEM: ATOMS id x y z type
18 15.2907 3.56757 2.16109 3
11 9.28591 17.5941 1.10102 2
24 7.19001 19.055 0.683473 5
14 4.23476 27.6866 2.49114 2
13 5.49404 2.208 4.22855 2
23 2.05706 10.7612 4.16723 5
4 23.4156 19.4172 2.29658 1
17 25.6311 26.3784 4.8607 3
20 19.5119 30.1394 4.62542 4
3 17.4785 10.1728 6.12503 1
2 15.6215 23.0827 5.49351 1
10 4.3109 29.7798 7.76269 1
15 6.53435 10.1872 8.97872 3
6 10.5728 23.1318 7.94388 1
22 21.0397 22.5316 15.1045 5
19 3.91364 2.79086 17.3892 4
12 16.646 15.7784 15.49 2
9 19.7181 28.6141 16.8078 1
7 2.17512 23.7308 19.573 1
5 4.0622 20.8294 23.6895 1
8 22.6668 1.38183 24.3302 1
1 12.8145 25.3342 23.8473 1
21 0.526453 25.903 26.0183 5
16 17.9517 6.99957 26.0506 3
ITEM: TIMESTEP
30
ITEM: NUMBER OF ATOMS
24
ITEM: BOX BOUNDS ff ff ff
0.0000000000000000e+00 3.1305960336348480e+01
0.0000000000000000e+00 3.1305960336348480e+01
0.0000000000000000e+00 3.1305960336348480e+01
ITEM: ATOMS id x y z type
18 15.3572 3.47468 2.39552 3
11 9.29682 17.7206 1.20014 2
24 7.41612 18.9803 0.744938 5
14 4.49032 27.8723 2.63028 2
13 5.39041 2.0872 3.82994 2
23 1.83812 10.7014 4.15676 5
4 23.3193 19.3316 2.0582 1
17 25.7044 26.4942 4.93018 3
20 19.4174 30.0334 4.38822 4
3 17.6367 10.2283 6.51883 1
2 15.8092 22.7122 5.44757 1
10 4.17235 29.7973 7.83318 1
15 6.57482 10.3355 8.92072 3
6 10.5027 23.0592 7.81496 1
22 20.9638 22.7677 14.9651 5
19 4.04524 2.98694 17.4258 4
12 16.5915 15.8843 15.3093 2
9 19.7245 28.6693 16.9134 1
7 1.99837 23.5849 19.3511 1
5 3.82196 20.9571 24.0803 1
8 22.6918 1.29008 24.1969 1
1 13.2 25.6322 23.7997 1
21 0.368744 25.7041 26.2518 5
16 17.8141 6.85049 25.9976 3
ITEM: TIMESTEP
40
ITEM: NUMBER OF ATOMS
24
ITEM: BOX BOUNDS ff ff ff
0.0000000000000000e+00 3.1305960336348480e+01
0.0000000000000000e+00 3.1305960336348480e+01
0.0000000000000000e+00 3.1305960336348480e+01
ITEM: ATOMS id x y z type
18 15.4257 3.38002 2.62789 3
11 9.28814 17.8564 1.29618 2
24 7.6392 18.896 0.812688 5
14 4.74641 28.0542 2.7684 2
13 5.28547 1.97537 3.44301 2
23 1.61708 10.6479 4.14334 5
4 23.2241 19.2485 1.81441 1
17 25.7791 26.61 4.99031 3
20 19.3318 29.9358 4.15588 4
3 17.7974 10.2886 6.92035 1
2 16.0023 22.3361 5.40707 1
10 4.03856 29.8215 7.90336 1
15 6.61131 10.4855 8.86499 3
6 10.431 22.98 7.68091 1
22 20.8864 23.0108 14.8227 5
19 4.17685 3.18438 17.4538 4
12 16.5325 15.9903 15.1411 2
9 19.7335 28.7314 17.0325 1
7 1.80993 23.4422 19.1317 1
5 3.5719 21.0879 24.4711 1
8 22.7215 1.20233 24.0757 1
1 13.585 25.9384 23.7527 1
21 0.206351 25.5092 26.4889 5
16 17.6908 6.69464 25.9429 3
ITEM: TIMESTEP
50
ITEM: NUMBER OF ATOMS
24
ITEM: BOX BOUNDS ff ff ff
0.0000000000000000e+00 3.1305960336348480e+01
0.0000000000000000e+00 3.1305960336348480e+01
0.0000000000000000e+00 3.1305960336348480e+01
ITEM: ATOMS id x y z type
18 15.4904 3.28329 2.85663 3
11 9.27338 17.9957 1.38941 2
24 7.87249 18.8058 0.879964 5
14 4.99965 28.2343 2.90413 2
13 5.17964 1.87441 3.06502 2
23 1.40374 10.5933 4.13164 5
4 23.1282 19.1595 1.57271 1
17 25.8534 26.7277 5.04563 3
20 19.2413 29.8424 3.92592 4
3 17.9654 10.3492 7.32215 1
2 16.1991 21.9608 5.36978 1
10 3.89783 29.8448 7.97513 1
15 6.6432 10.6349 8.81311 3
6 10.3637 22.8987 7.54957 1
22 20.8124 23.2503 14.6709 5
19 4.30894 3.38446 17.4855 4
12 16.4827 16.0991 14.9771 2
9 19.7474 28.8023 17.16 1
7 1.61894 23.2927 18.9087 1
5 3.31718 21.2151 24.86 1
8 22.7528 1.12146 23.9524 1
1 13.9763 26.2478 23.701 1
21 0.0445512 25.3263 26.7201 5
16 17.5757 6.5261 25.8827 3
ITEM: TIMESTEP
60
ITEM: NUMBER OF ATOMS
24
ITEM: BOX BOUNDS ff ff ff
0.0000000000000000e+00 3.1305960336348480e+01
0.0000000000000000e+00 3.1305960336348480e+01
0.0000000000000000e+00 3.1305960336348480e+01
ITEM: ATOMS id x y z type
18 15.5437 3.17971 3.0848 3
11 9.25446 18.1401 1.48555 2
24 8.11555 18.7129 0.950251 5
14 5.25462 28.4228 3.04134 2
13 5.07588 1.77943 2.68161 2
23 1.20228 10.5305 4.11899 5
4 23.0297 19.0625 1.33203 1
17 25.9277 26.8427 5.09002 3
20 19.1424 29.7431 3.68813 4
3 18.123 10.4146 7.71987 1
2 16.401 21.5729 5.34161 1
10 3.74832 29.8606 8.05803 1
15 6.66986 10.779 8.76281 3
6 10.2974 22.8209 7.40725 1
22 20.7427 23.4863 14.5206 5
19 4.43218 3.58329 17.5195 4
12 16.4424 16.2093 14.8195 2
9 19.7606 28.8863 17.29 1
7 1.42501 23.1426 18.6774 1
5 3.06668 21.334 25.2392 1
8 22.7843 1.02909 23.8307 1
1 14.3749 26.5572 23.6496 1
21 0.126291 25.1504 26.9601 5
16 17.4503 6.36841 25.8256 3
ITEM: TIMESTEP
70
ITEM: NUMBER OF ATOMS
24
ITEM: BOX BOUNDS ff ff ff
0.0000000000000000e+00 3.1305960336348480e+01
0.0000000000000000e+00 3.1305960336348480e+01
0.0000000000000000e+00 3.1305960336348480e+01
ITEM: ATOMS id x y z type
18 15.5933 3.07954 3.30733 3
11 9.23979 18.2891 1.58011 2
24 8.35747 18.6179 1.01306 5
14 5.52068 28.6038 3.17712 2
13 4.96592 1.69122 2.28955 2
23 1.00874 10.4636 4.11244 5
4 22.9323 18.9702 1.09254 1
17 26.0094 26.9603 5.12883 3
20 19.0446 29.6464 3.44117 4
3 18.2769 10.4831 8.1214 1
2 16.598 21.1824 5.31157 1
10 3.59932 29.8869 8.14785 1
15 6.69316 10.9121 8.72069 3
6 10.2283 22.749 7.26531 1
22 20.6743 23.7305 14.3799 5
19 4.55348 3.77471 17.5519 4
12 16.4106 16.32 14.6753 2
9 19.7765 28.9828 17.4156 1
7 1.24004 23.0037 18.4486 1
5 2.81964 21.4564 25.6095 1
8 22.8119 0.926095 23.7158 1
1 14.7791 26.8708 23.601 1
21 0.29039 24.9737 27.2125 5
16 17.3321 6.2089 25.7741 3
ITEM: TIMESTEP
80
ITEM: NUMBER OF ATOMS
24
ITEM: BOX BOUNDS ff ff ff
0.0000000000000000e+00 3.1305960336348480e+01
0.0000000000000000e+00 3.1305960336348480e+01
0.0000000000000000e+00 3.1305960336348480e+01
ITEM: ATOMS id x y z type
18 15.6505 2.99074 3.53151 3
11 9.23244 18.452 1.66319 2
24 8.59062 18.5286 1.0695 5
14 5.79318 28.7877 3.30626 2
13 4.85264 1.60415 1.89433 2
23 0.827784 10.3926 4.11383 5
4 22.8347 18.89 0.853982 1
17 26.0953 27.0729 5.16272 3
20 18.9379 29.5588 3.17587 4
3 18.4341 10.5513 8.51316 1
2 16.7994 20.7953 5.2749 1
10 3.44517 29.9159 8.2425 1
15 6.71299 11.0556 8.68094 3
6 10.1653 22.6726 7.13646 1
22 20.6051 23.9737 14.2285 5
19 4.67665 3.96566 17.5913 4
12 16.3748 16.4252 14.5321 2
9 19.7855 29.0748 17.5287 1
7 1.05392 22.8776 18.2286 1
5 2.56181 21.5824 25.9778 1
8 22.8387 0.824901 23.6147 1
1 15.1876 27.1882 23.5586 1
21 0.459147 24.7961 27.4704 5
16 17.2105 6.05691 25.7177 3
ITEM: TIMESTEP
90
ITEM: NUMBER OF ATOMS
24
ITEM: BOX BOUNDS ff ff ff
0.0000000000000000e+00 3.1305960336348480e+01
0.0000000000000000e+00 3.1305960336348480e+01
0.0000000000000000e+00 3.1305960336348480e+01
ITEM: ATOMS id x y z type
18 15.7147 2.89295 3.75123 3
11 9.22345 18.6149 1.74318 2
24 8.82757 18.4336 1.13125 5
14 6.06233 28.9708 3.44306 2
13 4.73306 1.52655 1.50665 2
23 0.656341 10.3209 4.11662 5
4 22.7454 18.805 0.624 1
17 26.1939 27.1831 5.19706 3
20 18.826 29.4806 2.89825 4
3 18.5939 10.6164 8.89883 1
2 17.0077 20.4027 5.24796 1
10 3.29355 29.9472 8.33832 1
15 6.74009 11.214 8.64152 3
6 10.0945 22.5951 7.00181 1
22 20.533 24.2248 14.0618 5
19 4.8022 4.15198 17.6298 4
12 16.3431 16.5195 14.3877 2
9 19.7951 29.1513 17.627 1
7 0.86898 22.7555 18.0135 1
5 2.2993 21.7188 26.334 1
8 22.8693 0.728698 23.5129 1
1 15.5929 27.5049 23.5276 1
21 0.630751 24.6214 27.7228 5
16 17.0899 5.90154 25.6669 3
ITEM: TIMESTEP
100
ITEM: NUMBER OF ATOMS
24
ITEM: BOX BOUNDS ff ff ff
0.0000000000000000e+00 3.1305960336348480e+01
0.0000000000000000e+00 3.1305960336348480e+01
0.0000000000000000e+00 3.1305960336348480e+01
ITEM: ATOMS id x y z type
18 15.7793 2.79762 3.9634 3
11 9.21559 18.7798 1.83042 2
24 9.06815 18.345 1.19221 5
14 6.32144 29.1497 3.58412 2
13 4.61422 1.44906 1.1254 2
23 0.488713 10.2409 4.12136 5
4 22.6548 18.7167 0.399439 1
17 26.2896 27.2979 5.23875 3
20 18.714 29.3967 2.62417 4
3 18.7504 10.6746 9.27507 1
2 17.2181 20.005 5.21582 1
10 3.14503 29.9734 8.43893 1
15 6.78293 11.3663 8.59871 3
6 10.0267 22.5273 6.86534 1
22 20.4641 24.4827 13.8796 5
19 4.9115 4.32044 17.6666 4
12 16.3167 16.6144 14.2443 2
9 19.8066 29.2239 17.7282 1
7 0.686608 22.632 17.805 1
5 2.04224 21.8621 26.6902 1
8 22.886 0.63908 23.4065 1
1 16.0004 27.8254 23.5077 1
21 0.794776 24.4531 27.9848 5
16 16.9649 5.75007 25.6228 3
ITEM: TIMESTEP
110
ITEM: NUMBER OF ATOMS
24
ITEM: BOX BOUNDS ff ff ff
0.0000000000000000e+00 3.1305960336348480e+01
0.0000000000000000e+00 3.1305960336348480e+01
0.0000000000000000e+00 3.1305960336348480e+01
ITEM: ATOMS id x y z type
13 4.50251 1.36475 0.746672 2
11 9.21883 18.9436 1.91905 2
24 9.30706 18.2502 1.24944 5
4 22.559 18.6253 0.182459 1
18 15.8429 2.69336 4.1742 3
23 0.315014 10.1647 4.1345 5
2 17.4286 19.6045 5.18185 1
14 6.56853 29.338 3.73313 2
20 18.5954 29.3113 2.34193 4
6 9.95321 22.4614 6.73703 1
17 26.3768 27.4127 5.29085 3
15 6.81318 11.5171 8.56557 3
3 18.9066 10.7215 9.64804 1
10 3.01166 30.007 8.53992 1
12 16.2911 16.7064 14.1049 2
22 20.3965 24.7337 13.6991 5
19 5.00881 4.47865 17.7056 4
7 0.506704 22.5162 17.5922 1
9 19.8192 29.2951 17.8347 1
8 22.8888 0.552719 23.3099 1
16 16.8388 5.59981 25.5836 3
1 16.4062 28.1559 23.4797 1
5 1.78714 22.0112 27.0611 1
21 0.954221 24.2869 28.2547 5
ITEM: TIMESTEP
120
ITEM: NUMBER OF ATOMS
24
ITEM: BOX BOUNDS ff ff ff
0.0000000000000000e+00 3.1305960336348480e+01
0.0000000000000000e+00 3.1305960336348480e+01
0.0000000000000000e+00 3.1305960336348480e+01
ITEM: ATOMS id x y z type
13 4.40064 1.2778 0.370646 2
11 9.22853 19.1132 2.00911 2
24 9.54682 18.1431 1.29886 5
4 22.4547 18.5413 0.0438974 1
18 15.9104 2.56884 4.37269 3
23 0.139194 10.0874 4.15512 5
2 17.6312 19.2025 5.13279 1
14 6.80848 29.5283 3.8754 2
20 18.4776 29.2214 2.06186 4
6 9.87495 22.395 6.60184 1
17 26.4607 27.5316 5.34933 3
15 6.83943 11.6624 8.53442 3
3 19.0519 10.775 10.0195 1
10 2.87744 30.0483 8.63711 1
12 16.2632 16.7973 13.9711 2
22 20.3308 24.9746 13.5293 5
19 5.09179 4.63918 17.75 4
7 0.32741 22.4038 17.371 1
9 19.8275 29.3617 17.9388 1
8 22.8993 0.461952 23.2189 1
16 16.7126 5.45404 25.5554 3
1 16.8188 28.4908 23.4507 1
5 1.53618 22.1603 27.4367 1
21 1.1133 24.1252 28.5309 5
ITEM: TIMESTEP
130
ITEM: NUMBER OF ATOMS
24
ITEM: BOX BOUNDS ff ff ff
0.0000000000000000e+00 3.1305960336348480e+01
0.0000000000000000e+00 3.1305960336348480e+01
0.0000000000000000e+00 3.1305960336348480e+01
ITEM: ATOMS id x y z type
13 4.30637 1.19797 0.00839468 2
11 9.23835 19.2797 2.10075 2
24 9.78147 18.0313 1.34356 5
4 22.3391 18.4658 0.269722 1
18 15.9867 2.43469 4.5828 3
23 0.0265261 10.0145 4.18563 5
2 17.826 18.8034 5.0865 1
14 7.03802 29.7198 4.01944 2
20 18.3516 29.1256 1.77467 4
6 9.78868 22.3143 6.48052 1
17 26.545 27.6618 5.41293 3
15 6.88107 11.8117 8.50558 3
3 19.1872 10.8393 10.3879 1
10 2.75159 30.0926 8.73639 1
12 16.2364 16.8894 13.8404 2
22 20.2544 25.2148 13.3625 5
19 5.17142 4.80382 17.7836 4
7 0.158743 22.2981 17.1425 1
9 19.8395 29.439 18.0353 1
8 22.9042 0.363423 23.1249 1
16 16.5831 5.30361 25.5347 3
1 17.2307 28.8357 23.4385 1
5 1.28782 22.3127 27.8036 1
21 1.27141 23.963 28.8202 5
ITEM: TIMESTEP
140
ITEM: NUMBER OF ATOMS
24
ITEM: BOX BOUNDS ff ff ff
0.0000000000000000e+00 3.1305960336348480e+01
0.0000000000000000e+00 3.1305960336348480e+01
0.0000000000000000e+00 3.1305960336348480e+01
ITEM: ATOMS id x y z type
13 4.21652 1.12422 0.384906 2
11 9.24843 19.4306 2.18501 2
24 10.0124 17.9133 1.38765 5
4 22.2147 18.3898 0.488608 1
18 16.0579 2.29986 4.79229 3
23 0.189521 9.94547 4.2196 5
2 18.0221 18.4114 5.04858 1
14 7.26045 29.9112 4.15487 2
20 18.2362 29.0394 1.48171 4
6 9.6996 22.2237 6.3591 1
17 26.6356 27.7941 5.48858 3
15 6.91922 11.9603 8.48261 3
3 19.3193 10.9004 10.749 1
10 2.6362 30.1385 8.83358 1
12 16.2131 16.9808 13.6998 2
22 20.1811 25.451 13.1904 5
19 5.24931 4.96677 17.8195 4
7 0.0101311 22.1934 16.912 1
9 19.8538 29.5312 18.1284 1
8 22.9045 0.25833 23.0309 1
16 16.4451 5.15277 25.5181 3
1 17.6415 29.1738 23.4297 1
5 1.04613 22.4685 28.1739 1
21 1.43718 23.8042 29.1097 5
ITEM: TIMESTEP
150
ITEM: NUMBER OF ATOMS
24
ITEM: BOX BOUNDS ff ff ff
0.0000000000000000e+00 3.1305960336348480e+01
0.0000000000000000e+00 3.1305960336348480e+01
0.0000000000000000e+00 3.1305960336348480e+01
ITEM: ATOMS id x y z type
13 4.12814 1.05795 0.760273 2
11 9.25513 19.583 2.26488 2
24 10.2343 17.803 1.4429 5
4 22.0781 18.3066 0.691723 1
18 16.1235 2.16502 4.99978 3
23 0.353517 9.88054 4.26228 5
2 18.218 18.0103 5.02173 1
14 7.4747 30.094 4.2915 2
20 18.1203 28.9599 1.1815 4
6 9.61489 22.1237 6.23811 1
17 26.7366 27.9231 5.56335 3
15 6.95458 12.1061 8.45774 3
3 19.4507 10.9563 11.105 1
10 2.52093 30.1907 8.93329 1
12 16.1921 17.0695 13.5658 2
22 20.1097 25.6839 13.0243 5
19 5.32489 5.12236 17.8608 4
7 0.176041 22.0917 16.6938 1
9 19.8696 29.6314 18.2167 1
8 22.9048 0.168846 22.9454 1
16 16.3041 5.00079 25.4978 3
1 18.057 29.5118 23.4303 1
5 0.805105 22.6275 28.5428 1
21 1.60714 23.6362 29.3934 5
ITEM: TIMESTEP
160
ITEM: NUMBER OF ATOMS
24
ITEM: BOX BOUNDS ff ff ff
0.0000000000000000e+00 3.1305960336348480e+01
0.0000000000000000e+00 3.1305960336348480e+01
0.0000000000000000e+00 3.1305960336348480e+01
ITEM: ATOMS id x y z type
13 4.03829 0.993283 1.13997 2
11 9.26521 19.7338 2.3472 2
24 10.4363 17.7047 1.50526 5
4 21.928 18.2228 0.891492 1
18 16.1919 2.02223 5.21576 3
23 0.518715 9.81367 4.2995 5
2 18.4129 17.6013 4.9932 1
14 7.68595 30.2713 4.42015 2
20 18.0019 28.8776 0.883432 4
6 9.52997 22.0325 6.11763 1
17 26.8496 28.0609 5.63631 3
15 6.9823 12.2626 8.43324 3
3 19.5769 11.0096 11.4646 1
10 2.40363 30.2386 9.02493 1
12 16.1794 17.1536 13.4386 2
22 20.0411 25.9152 12.8676 5
19 5.40407 5.2726 17.9074 4
7 0.336991 21.9894 16.4736 1
9 19.8793 29.7257 18.3052 1
8 22.907 0.0843576 22.8577 1
16 16.1678 4.85428 25.4823 3
1 18.469 29.8503 23.4403 1
5 0.559518 22.7954 28.9097 1
21 1.78311 23.4598 29.6625 5
ITEM: TIMESTEP
170
ITEM: NUMBER OF ATOMS
24
ITEM: BOX BOUNDS ff ff ff
0.0000000000000000e+00 3.1305960336348480e+01
0.0000000000000000e+00 3.1305960336348480e+01
0.0000000000000000e+00 3.1305960336348480e+01
ITEM: ATOMS id x y z type
13 3.94132 0.945666 1.51952 2
11 9.28313 19.879 2.42935 2
24 10.6263 17.5972 1.56858 5
4 21.7729 18.1396 1.08347 1
18 16.2603 1.88243 5.42729 3
23 0.681199 9.75015 4.33601 5
2 18.6088 17.1988 4.95151 1
14 7.89578 30.4401 4.5475 2
20 17.8725 28.7928 0.590943 4
6 9.4481 21.9451 6.00656 1
17 26.9607 28.2008 5.70679 3
15 6.99824 12.4254 8.42132 3
3 19.6865 11.0587 11.8216 1
10 2.28924 30.2871 9.11205 1
12 16.1603 17.2231 13.3204 2
22 19.9658 26.1409 12.6972 5
19 5.49218 5.42462 17.9512 4
7 0.497035 21.8937 16.2515 1
9 19.8901 29.8137 18.4 1
8 22.9115 0.000278622 22.7797 1
16 16.0313 4.70599 25.4631 3
1 18.8833 30.1909 23.4556 1
5 0.328622 22.9676 29.2621 1
21 1.94969 23.29 29.9261 5
ITEM: TIMESTEP
180
ITEM: NUMBER OF ATOMS
24
ITEM: BOX BOUNDS ff ff ff
0.0000000000000000e+00 3.1305960336348480e+01
0.0000000000000000e+00 3.1305960336348480e+01
0.0000000000000000e+00 3.1305960336348480e+01
ITEM: ATOMS id x y z type
13 3.84063 0.904149 1.89674 2
11 9.29876 20.0297 2.5077 2
24 10.8227 17.4801 1.62802 5
4 21.6085 18.055 1.27241 1
18 16.336 1.73418 5.64539 3
23 0.838658 9.68904 4.37963 5
2 18.8178 16.798 4.90834 1
14 8.11115 30.6133 4.65958 2
20 17.7382 28.706 0.300786 4
6 9.37531 21.8572 5.90944 1
17 27.0748 28.3478 5.77244 3
15 7.00247 12.596 8.41965 3
3 19.797 11.1202 12.1855 1
10 2.17185 30.3507 9.20633 1
12 16.1393 17.2843 13.2063 2
22 19.8797 26.3611 12.5173 5
19 5.57722 5.58973 17.9926 4
7 0.663986 21.7912 16.0361 1
9 19.8954 29.9087 18.5012 1
8 22.9143 0.0857236 22.7035 1
16 15.879 4.56139 25.4438 3
1 19.3167 30.5411 23.479 1
5 0.0953871 23.1452 29.6054 1
21 2.11223 23.1291 30.182 5
ITEM: TIMESTEP
190
ITEM: NUMBER OF ATOMS
24
ITEM: BOX BOUNDS ff ff ff
0.0000000000000000e+00 3.1305960336348480e+01
0.0000000000000000e+00 3.1305960336348480e+01
0.0000000000000000e+00 3.1305960336348480e+01
ITEM: ATOMS id x y z type
13 3.74318 0.863646 2.27069 2
11 9.31328 20.182 2.59257 2
24 11.0124 17.3591 1.68455 5
4 21.4372 17.961 1.46282 1
18 16.4101 1.57896 5.86081 3
23 0.993892 9.64134 4.42522 5
2 19.0398 16.4028 4.86078 1
14 8.32248 30.7777 4.76151 2
20 17.6067 28.6145 0.000567135 4
6 9.30564 21.7657 5.81318 1
17 27.1927 28.5043 5.85026 3
15 7.01452 12.7625 8.42869 3
3 19.9092 11.1841 12.5511 1
10 2.05746 30.4296 9.30012 1
12 16.1008 17.3524 13.0809 2
22 19.7999 26.5755 12.3427 5
19 5.65239 5.75573 18.0295 4
7 0.830793 21.6717 15.8152 1
9 19.8827 30.0015 18.599 1
8 22.9125 0.170237 22.6235 1
16 15.7217 4.42068 25.4143 3
1 19.7489 30.8889 23.5056 1
5 0.139124 23.3175 29.9421 1
21 2.27725 22.9663 30.4339 5
ITEM: TIMESTEP
200
ITEM: NUMBER OF ATOMS
24
ITEM: BOX BOUNDS ff ff ff
0.0000000000000000e+00 3.1305960336348480e+01
0.0000000000000000e+00 3.1305960336348480e+01
0.0000000000000000e+00 3.1305960336348480e+01
ITEM: ATOMS id x y z type
13 3.65659 0.819687 2.64059 2
11 9.32727 20.3215 2.67466 2
24 11.1964 17.2361 1.74407 5
4 21.2693 17.8627 1.64807 1
18 16.4809 1.41946 6.07841 3
23 1.15461 9.59684 4.46813 5
2 19.2677 16.0073 4.80861 1
14 8.5282 30.9342 4.86233 2
20 17.4784 28.5285 0.293623 4
6 9.23517 21.6796 5.70999 1
17 27.3046 28.6599 5.92523 3
15 7.02798 12.9238 8.43269 3
3 20.0267 11.2511 12.9093 1
10 1.94818 30.509 9.3921 1
12 16.0599 17.4242 12.9602 2
22 19.7148 26.7913 12.1761 5
19 5.72961 5.92989 18.061 4
7 1.00449 21.5548 15.592 1
9 19.8585 30.0991 18.6876 1
8 22.9097 0.25203 22.5379 1
16 15.5653 4.28549 25.3772 3
1 20.1924 31.2352 23.5373 1
5 0.373589 23.4862 30.2779 1
21 2.44379 22.8002 30.6876 5
ITEM: TIMESTEP
210
ITEM: NUMBER OF ATOMS
24
ITEM: BOX BOUNDS ff ff ff
0.0000000000000000e+00 3.1305960336348480e+01
0.0000000000000000e+00 3.1305960336348480e+01
0.0000000000000000e+00 3.1305960336348480e+01
ITEM: ATOMS id x y z type
24 11.3748 17.102 1.80287 5
4 21.0984 17.7677 1.83418 1
20 17.3437 28.4352 0.577306 4
13 3.56057 0.766378 3.00507 2
23 1.32884 9.54608 4.51702 5
2 19.494 15.6106 4.74783 1
11 9.34611 20.4583 2.76528 2
14 8.73618 31.0963 4.95664 2
18 16.5572 1.2601 6.29388 3
6 9.16119 21.5884 5.60531 1
17 27.4095 28.8144 6.00426 3
15 7.04285 13.0834 8.43676 3
10 1.84436 30.5869 9.47797 1
3 20.1385 11.3093 13.2686 1
12 16.0192 17.5031 12.8463 2
22 19.6245 27.0056 12.0053 5
7 1.17709 21.4445 15.3759 1
19 5.79961 6.09767 18.0987 4
9 19.8256 30.1933 18.7661 1
8 22.9128 0.328128 22.4543 1
16 15.4118 4.14188 25.3505 3
1 20.6316 31.0265 23.5709 1
21 2.61019 22.6304 30.9425 5
5 0.620154 23.6653 30.6156 1
ITEM: TIMESTEP
220
ITEM: NUMBER OF ATOMS
24
ITEM: BOX BOUNDS ff ff ff
0.0000000000000000e+00 3.1305960336348480e+01
0.0000000000000000e+00 3.1305960336348480e+01
0.0000000000000000e+00 3.1305960336348480e+01
ITEM: ATOMS id x y z type
24 11.5521 16.9709 1.86457 5
4 20.9157 17.6747 2.02222 1
20 17.21 28.3398 0.854612 4
13 3.46164 0.70589 3.36785 2
23 1.50404 9.49122 4.57155 5
2 19.7167 15.2093 4.68124 1
11 9.35944 20.5949 2.84774 2
14 8.94955 31.2533 5.05543 2
18 16.6497 1.09764 6.51455 3
6 9.09328 21.4953 5.49086 1
17 27.5183 28.9735 6.08755 3
15 7.05626 13.2427 8.44281 3
10 1.73976 30.6653 9.56589 1
3 20.2511 11.3623 13.6337 1
12 15.9856 17.5734 12.7351 2
22 19.5276 27.2302 11.8333 5
7 1.35161 21.3372 15.1663 1
19 5.88109 6.25948 18.1338 4
9 19.7928 30.2924 18.8448 1
8 22.9266 0.409655 22.3831 1
16 15.2654 4.00051 25.3296 3
1 21.0687 30.6725 23.6114 1
21 2.78332 22.4517 31.202 5
5 0.867819 23.8482 30.9536 1
ITEM: TIMESTEP
230
ITEM: NUMBER OF ATOMS
24
ITEM: BOX BOUNDS ff ff ff
0.0000000000000000e+00 3.1305960336348480e+01
0.0000000000000000e+00 3.1305960336348480e+01
0.0000000000000000e+00 3.1305960336348480e+01
ITEM: ATOMS id x y z type
24 11.7313 16.8405 1.91886 5
4 20.7392 17.5885 2.20495 1
20 17.0762 28.2378 1.13546 4
13 3.37307 0.633464 3.73764 2
23 1.68786 9.45045 4.63185 5
2 19.9374 14.8097 4.61257 1
11 9.37783 20.7406 2.91936 2
14 9.17032 31.2138 5.15119 2
18 16.7537 0.936534 6.73396 3
6 9.03622 21.3899 5.37697 1
17 27.6188 29.1382 6.1728 3
15 7.07758 13.4055 8.45403 3
10 1.63993 30.7411 9.64412 1
3 20.3651 11.4067 14.0064 1
12 15.9538 17.6434 12.6243 2
22 19.4392 27.4605 11.6573 5
7 1.53083 21.2403 14.9524 1
19 5.96097 6.41559 18.164 4
9 19.7533 30.3888 18.9317 1
8 22.9414 0.497437 22.3166 1
16 15.1246 3.84646 25.324 3
1 21.5091 30.3123 23.644 1
21 2.96679 22.2639 31.1609 5
5 1.11475 24.037 31.2968 1
ITEM: TIMESTEP
240
ITEM: NUMBER OF ATOMS
24
ITEM: BOX BOUNDS ff ff ff
0.0000000000000000e+00 3.1305960336348480e+01
0.0000000000000000e+00 3.1305960336348480e+01
0.0000000000000000e+00 3.1305960336348480e+01
ITEM: ATOMS id x y z type
24 11.9107 16.7073 1.9722 5
4 20.5699 17.5022 2.37815 1
20 16.9308 28.1338 1.42321 4
13 3.28626 0.556137 4.10884 2
23 1.88068 9.42111 4.68695 5
2 20.152 14.4085 4.55767 1
11 9.39706 20.8878 2.99491 2
14 9.39856 31.075 5.23539 2
18 16.8443 0.777799 6.95962 3
6 8.97494 21.2832 5.26932 1
17 27.7231 29.305 6.25561 3
15 7.09524 13.5666 8.47029 3
10 1.5447 30.823 9.73103 1
3 20.482 11.4438 14.3797 1
12 15.9166 17.7128 12.5091 2
22 19.3481 27.6871 11.4794 5
7 1.72016 21.1489 14.7348 1
19 6.04594 6.56924 18.1908 4
9 19.7079 30.4882 19.0186 1
8 22.9603 0.582932 22.2589 1
16 14.9811 3.68724 25.3217 3
1 21.9494 29.9504 23.6858 1
21 3.16001 22.0776 30.9239 5
5 1.36362 24.2361 30.9775 1
ITEM: TIMESTEP
250
ITEM: NUMBER OF ATOMS
24
ITEM: BOX BOUNDS ff ff ff
0.0000000000000000e+00 3.1305960336348480e+01
0.0000000000000000e+00 3.1305960336348480e+01
0.0000000000000000e+00 3.1305960336348480e+01
ITEM: ATOMS id x y z type
24 12.0922 16.5782 2.00866 5
4 20.3979 17.4119 2.56332 1
20 16.7764 28.0222 1.70397 4
13 3.19814 0.483943 4.47253 2
23 2.0697 9.38547 4.74192 5
2 20.3694 14.0072 4.51812 1
11 9.40795 21.0437 3.08267 2
14 9.62908 30.9352 5.3202 2
18 16.9293 0.625643 7.18139 3
6 8.91173 21.1724 5.16688 1
17 27.8388 29.4777 6.32759 3
15 7.12464 13.7343 8.47972 3
10 1.44949 30.9083 9.81484 1
3 20.5919 11.4888 14.7522 1
12 15.8843 17.7813 12.3927 2
22 19.2655 27.9254 11.2999 5
7 1.92112 21.0684 14.5173 1
19 6.13243 6.71912 18.2141 4
9 19.6567 30.5931 19.1137 1
8 22.9807 0.665758 22.2061 1
16 14.8395 3.52226 25.3208 3
1 22.396 29.5869 23.7318 1
21 3.35255 21.8962 30.6919 5
5 1.60259 24.4293 30.648 1
ITEM: TIMESTEP
260
ITEM: NUMBER OF ATOMS
24
ITEM: BOX BOUNDS ff ff ff
0.0000000000000000e+00 3.1305960336348480e+01
0.0000000000000000e+00 3.1305960336348480e+01
0.0000000000000000e+00 3.1305960336348480e+01
ITEM: ATOMS id x y z type
24 12.2743 16.4663 2.04834 5
4 20.2231 17.3244 2.74912 1
20 16.6219 27.896 1.97588 4
13 3.11764 0.413193 4.82631 2
23 2.25216 9.34829 4.79591 5
2 20.596 13.5981 4.47617 1
11 9.41846 21.2169 3.18378 2
14 9.86586 30.8041 5.40921 2
18 17.0203 0.462383 7.40946 3
6 8.8497 21.0551 5.06521 1
17 27.9534 29.6471 6.39542 3
15 7.15385 13.8926 8.48406 3
10 1.34344 30.9887 9.89736 1
3 20.6972 11.5411 15.1284 1
12 15.8473 17.8447 12.264 2
22 19.1858 28.1592 11.1239 5
7 2.124 20.9871 14.3014 1
19 6.21474 6.86354 18.2377 4
9 19.6013 30.7014 19.2147 1
8 23.0108 0.747779 22.1494 1
16 14.6983 3.35039 25.315 3
1 22.8466 29.2161 23.7716 1
21 3.55742 21.7176 30.4635 5
5 1.83996 24.6181 30.329 1
ITEM: TIMESTEP
270
ITEM: NUMBER OF ATOMS
24
ITEM: BOX BOUNDS ff ff ff
0.0000000000000000e+00 3.1305960336348480e+01
0.0000000000000000e+00 3.1305960336348480e+01
0.0000000000000000e+00 3.1305960336348480e+01
ITEM: ATOMS id x y z type
24 12.4583 16.3666 2.09472 5
4 20.0476 17.2384 2.93343 1
20 16.4767 27.7588 2.24599 4
13 3.04005 0.341799 5.1802 2
23 2.42986 9.31831 4.85811 5
2 20.8295 13.1869 4.43894 1
11 9.42829 21.4031 3.28742 2
14 10.0939 30.6796 5.49569 2
18 17.1202 0.29307 7.63064 3
6 8.78883 20.937 4.95849 1
17 28.07 29.8142 6.45882 3
15 7.19252 14.0529 8.4873 3
10 1.23074 31.0676 9.97922 1
3 20.8027 11.5843 15.5108 1
12 15.811 17.9123 12.1389 2
22 19.1021 28.3917 10.9444 5
7 2.32359 20.9027 14.0927 1
19 6.29025 7.01161 18.2586 4
9 19.5575 30.8036 19.3244 1
8 23.0382 0.835873 22.0826 1
16 14.5493 3.1831 25.3081 3
1 23.2956 28.8416 23.7983 1
21 3.76574 21.5344 30.2369 5
5 2.0745 24.7991 30.0038 1
ITEM: TIMESTEP
280
ITEM: NUMBER OF ATOMS
24
ITEM: BOX BOUNDS ff ff ff
0.0000000000000000e+00 3.1305960336348480e+01
0.0000000000000000e+00 3.1305960336348480e+01
0.0000000000000000e+00 3.1305960336348480e+01
ITEM: ATOMS id x y z type
24 12.641 16.2648 2.13875 5
4 19.8707 17.1488 3.11657 1
20 16.3349 27.6176 2.51622 4
13 2.96396 0.263757 5.53427 2
23 2.61118 9.29513 4.92953 5
2 21.0682 12.7756 4.41556 1
11 9.44104 21.5904 3.39535 2
14 10.3135 30.5561 5.56761 2
18 17.2374 0.133969 7.84769 3
6 8.72836 20.8274 4.85416 1
17 28.1953 29.9702 6.5181 3
15 7.23438 14.2216 8.49448 3
10 1.11322 31.1353 10.0548 1
3 20.9018 11.6212 15.9001 1
12 15.7792 17.978 12.0248 2
22 19.0132 28.6299 10.7682 5
7 2.52342 20.8149 13.8895 1
19 6.37267 7.16024 18.2745 4
9 19.5158 30.9114 19.4371 1
8 23.0638 0.935391 22.0228 1
16 14.395 3.01145 25.3006 3
1 23.743 28.4683 23.8245 1
21 3.96158 21.3426 30.003 5
5 2.31319 24.9909 29.6754 1
ITEM: TIMESTEP
290
ITEM: NUMBER OF ATOMS
24
ITEM: BOX BOUNDS ff ff ff
0.0000000000000000e+00 3.1305960336348480e+01
0.0000000000000000e+00 3.1305960336348480e+01
0.0000000000000000e+00 3.1305960336348480e+01
ITEM: ATOMS id x y z type
24 12.8241 16.1655 2.17416 5
4 19.6982 17.0644 3.29439 1
20 16.2066 27.4717 2.78234 4
13 2.88789 0.186417 5.8914 2
23 2.78083 9.27382 5.00193 5
2 21.2947 12.3657 4.41058 1
11 9.44221 21.7762 3.51002 2
14 10.53 30.4389 5.64014 2
18 17.3626 0.0170286 8.0661 3
6 8.67565 20.7096 4.7575 1
17 28.325 30.1181 6.5789 3
15 7.27485 14.3894 8.49385 3
10 0.994722 31.1986 10.1413 1
3 21.0061 11.6535 16.2829 1
12 15.7433 18.0341 11.8958 2
22 18.9116 28.8752 10.5916 5
7 2.70989 20.7269 13.6944 1
19 6.45543 7.31743 18.2882 4
9 19.4736 31.0184 19.543 1
8 23.0837 1.03722 21.9554 1
16 14.2383 2.83311 25.308 3
1 24.1944 28.0902 23.8581 1
21 4.14731 21.158 29.7714 5
5 2.54696 25.1868 29.3392 1
ITEM: TIMESTEP
300
ITEM: NUMBER OF ATOMS
24
ITEM: BOX BOUNDS ff ff ff
0.0000000000000000e+00 3.1305960336348480e+01
0.0000000000000000e+00 3.1305960336348480e+01
0.0000000000000000e+00 3.1305960336348480e+01
ITEM: ATOMS id x y z type
24 13.0053 16.067 2.2008 5
4 19.5222 16.9714 3.47831 1
20 16.0856 27.3312 3.04267 4
13 2.81498 0.104073 6.24742 2
23 2.94167 9.25498 5.0627 5
2 21.5055 11.9647 4.41604 1
11 9.43884 21.9676 3.61984 2
14 10.7469 30.3193 5.71717 2
18 17.4882 0.165894 8.28952 3
6 8.6268 20.5897 4.66917 1
17 28.4597 30.2617 6.64255 3
15 7.31846 14.5628 8.48812 3
10 0.878184 31.2745 10.2291 1
3 21.106 11.6811 16.6682 1
12 15.6989 18.089 11.7545 2
22 18.8031 29.1175 10.4246 5
7 2.88614 20.6427 13.5061 1
19 6.54142 7.46857 18.2982 4
9 19.4335 31.1332 19.6527 1
8 23.0992 1.12842 21.8872 1
16 14.0863 2.66778 25.3142 3
1 24.6475 27.717 23.8888 1
21 4.33618 20.9736 29.5306 5
5 2.77333 25.3824 28.9948 1
ITEM: TIMESTEP
310
ITEM: NUMBER OF ATOMS
24
ITEM: BOX BOUNDS ff ff ff
0.0000000000000000e+00 3.1305960336348480e+01
0.0000000000000000e+00 3.1305960336348480e+01
0.0000000000000000e+00 3.1305960336348480e+01
ITEM: ATOMS id x y z type
24 13.1917 15.9671 2.21967 5
23 3.0987 9.25572 5.11845 5
2 21.7173 11.5689 4.43004 1
4 19.3412 16.8761 3.66967 1
6 8.57431 20.4672 4.57952 1
11 9.42495 22.1632 3.72636 2
20 15.964 27.1911 3.31029 4
13 2.73425 0.0274105 6.59431 2
14 10.9529 30.1895 5.79874 2
17 28.5975 30.4035 6.71041 3
18 17.6201 0.308012 8.5074 3
15 7.36257 14.7372 8.48 3
10 0.74936 31.2497 10.3197 1
22 18.6885 29.3697 10.2669 5
12 15.6577 18.1504 11.6126 2
7 3.05699 20.5571 13.3197 1
3 21.2163 11.7153 17.0417 1
19 6.6337 7.61488 18.3096 4
9 19.3914 31.2543 19.7665 1
8 23.1145 1.21812 21.8172 1
16 13.9455 2.50657 25.3142 3
1 25.0987 27.3518 23.9262 1
21 4.53435 20.7857 29.2943 5
5 2.99077 25.5737 28.658 1
ITEM: TIMESTEP
320
ITEM: NUMBER OF ATOMS
24
ITEM: BOX BOUNDS ff ff ff
0.0000000000000000e+00 3.1305960336348480e+01
0.0000000000000000e+00 3.1305960336348480e+01
0.0000000000000000e+00 3.1305960336348480e+01
ITEM: ATOMS id x y z type
24 13.3781 15.8765 2.23411 5
23 3.24351 9.26956 5.1697 5
2 21.9289 11.1735 4.45008 1
4 19.1573 16.7833 3.8606 1
6 8.50835 20.3432 4.49423 1
11 9.41455 22.3508 3.82405 2
20 15.844 27.0408 3.57573 4
13 2.6469 0.0398768 6.94475 2
14 11.1592 30.0626 5.87222 2
17 28.7402 30.533 6.78014 3
18 17.7562 0.443721 8.71492 3
15 7.4061 14.9115 8.4609 3
10 0.62285 31.1618 10.4158 1